ITEM: TIMESTEP
0
ITEM: NUMBER OF ATOMS
15235
ITEM: BOX BOUNDS ff pp ff
-0.121 0.121
0 0.05
-0.121 0.121
ITEM: ATOMS id type x y z vx vy vz fx fy fz omegax omegay omegaz radius density v_radialPos f_Temp[0] f_heatFlux[0] f_heatSource[0] 
1 2 -0.0596163 0.0499491 -0.0335165 0.000185986 2.25923e-05 -0.000602622 -7.18111e-08 1.35514e-06 9.77982e-06 -0.0152519 0.0141825 -0.00129622 0.003 2521 0.0683919 294.15 0.00630355 0 
2 1 0.0014025 0.0194667 -0.0123233 0.000149328 9.70452e-06 -0.00135012 -7.59732e-07 -3.51979e-07 3.68033e-06 -0.00848084 -0.0101811 -0.0435266 0.0015 2667 0.0124029 294.15 -0.0019643 0 
3 1 -0.0229438 0.0484639 -0.0307094 0.000177696 9.52673e-06 -0.00112084 1.99073e-07 1.0366e-06 2.71913e-06 0.0222122 0.018591 -0.0144455 0.0015 2667 0.0383338 294.15 -0.000269593 0 
4 1 -0.026569 0.0149782 -0.00856772 0.000403904 2.16847e-05 -0.00127686 -1.5331e-06 8.31246e-08 2.68979e-06 -0.00322496 0.0163642 0.019059 0.0015 2667 0.0279163 294.15 -0.0168979 0 
5 2 -0.114852 0.00727836 -0.00529555 0.000128994 5.72238e-06 -2.61934e-05 -2.11641e-06 -7.92236e-08 1.32849e-06 -0.000743387 0.0185822 0.0103935 0.003 2521 0.114974 294.15 -0.0456831 0 
6 2 0.0346899 0.049496 -0.0655638 8.37136e-05 1.18344e-05 -0.000496508 -9.21544e-06 8.79215e-07 3.27569e-06 0.00960932 -0.0134522 0.00750066 0.003 2521 0.0741755 294.15 -0.0933054 0 
7 2 -0.0663349 0.0396253 -0.0595073 3.04455e-05 1.47573e-05 -0.000309389 -7.55542e-06 -1.12585e-06 -5.45852e-07 0.00858826 0.0021123 0.00139399 0.003 2521 0.0891148 294.15 -0.0867388 0 
8 1 -0.0241137 0.0378321 -0.0470635 9.53707e-05 4.01453e-06 -0.000858049 -3.22161e-06 -1.91424e-06 -6.65131e-07 0.0189285 -0.0172527 0.0141929 0.0015 2667 0.0528814 294.15 -0.00243201 0 
9 2 -0.0937923 0.00194073 -0.0426828 5.64449e-05 1.42297e-05 -0.000131504 5.41781e-06 -2.15884e-06 -2.75361e-06 -0.00380779 0.0108598 -0.00122428 0.003 2521 0.103048 294.15 0.000214383 0 
10 1 -0.0155971 0.0125758 -0.0607323 8.28285e-05 -3.16262e-06 -0.000728849 -6.49043e-07 -4.1998e-06 3.84989e-06 0.033991 -0.0205995 0.0100185 0.0015 2667 0.0627031 294.15 0.00738317 0 
11 1 0.024149 0.0473116 -0.0644673 6.98874e-05 2.32517e-05 -0.000594686 6.69388e-06 -3.90203e-06 -8.44064e-06 -0.12021 -0.0108459 -0.0541187 0.0015 2667 0.0688419 294.15 -0.00582348 0 
12 1 -0.0303178 0.023075 -0.0163514 0.000353791 4.10439e-05 -0.00117927 -1.29615e-06 -1.67972e-06 -8.57738e-07 0.0489574 0.0399801 -0.0103288 0.0015 2667 0.0344462 294.15 0.0077281 0 
13 1 -0.040333 0.00929233 -0.0548524 3.92228e-05 1.03814e-05 -0.000672005 3.77307e-07 3.45028e-07 3.18899e-06 0.00190567 0.0177734 0.00910451 0.0015 2667 0.0680847 294.15 -0.0107838 0 
14 2 -0.0304446 0.0113052 -0.0150946 0.000365089 3.61217e-05 -0.00120152 -1.50157e-05 4.69703e-07 1.36598e-05 0.00316838 0.0161996 0.00118793 0.003 2521 0.0339812 294.15 -0.0180241 0 
15 1 0.0473781 0.0112386 -0.0437743 5.03282e-05 4.19624e-06 -0.00058465 -5.58705e-06 -3.37045e-06 3.3654e-06 0.0239821 -0.00153867 0.00843944 0.0015 2667 0.0645048 294.15 0.00393604 0 
16 2 -0.0722538 0.0300093 -0.00118386 0.000679787 2.93785e-05 -0.000573198 -1.26088e-05 1.25005e-06 9.22673e-06 -0.00172941 0.0194728 0.00207998 0.003 2521 0.0722635 294.15 0.0199086 0 
17 1 -0.0140995 0.038664 -0.0173165 0.000250384 2.86241e-05 -0.00130871 -1.8768e-06 8.5696e-07 2.05818e-06 -0.0103893 -0.0148549 -0.0066206 0.0015 2667 0.0223306 294.15 0.00978818 0 
18 1 -0.00184122 0.0101017 -0.0510232 5.78482e-05 1.64894e-05 -0.000908189 1.61189e-06 -1.47629e-06 2.98018e-06 -0.0261554 -0.0393458 0.00202118 0.0015 2667 0.0510564 294.15 0.00218043 0 
19 2 0.0889437 0.0197266 -0.0156773 -0.000114583 5.89453e-06 -0.00022292 -1.99221e-07 -3.97551e-07 8.12648e-06 0.00315508 -0.00216931 0.00285144 0.003 2521 0.0903148 294.15 0.138915 0 
20 2 0.0210681 0.0123108 -0.0959492 4.20241e-05 7.51162e-06 -0.000210121 -2.29459e-05 -6.98011e-06 1.35931e-06 0.00509777 -0.0258445 0.0136876 0.003 2521 0.098235 294.15 0.105464 0 
21 2 -0.0534939 0.0396006 -0.075583 2.35843e-05 1.66529e-05 -0.000271322 -3.5457e-06 1.37811e-05 7.45935e-06 0.00287849 0.00638915 0.00209295 0.003 2521 0.092598 294.15 -0.224791 0 
22 2 -0.0629376 0.02452 -0.0986817 1.8217e-05 -6.85809e-06 -4.75021e-05 1.37539e-07 -4.50425e-07 2.07304e-05 0.0085492 0.0287814 -0.00440644 0.003 2521 0.117044 294.15 4.89277 0 
23 1 -0.022841 0.0382054 -0.0541672 7.21214e-05 -4.35752e-06 -0.000782121 -4.50043e-06 -3.38358e-06 -1.5884e-06 -0.0802398 -0.0351063 -0.0232652 0.0015 2667 0.0587861 294.15 -0.00425304 0 
24 1 0.022266 0.0464414 -0.0770278 4.32564e-05 3.12953e-06 -0.000434088 -8.28437e-06 1.0813e-05 6.7996e-06 0.138139 0.054015 0.0931118 0.0015 2667 0.0801814 294.15 0.00256813 0 
25 1 -0.017248 0.0387926 -0.0561044 7.16024e-05 -8.49569e-06 -0.000773102 8.12672e-07 -2.92334e-06 -2.15267e-07 0.0512714 -0.084284 0.0471486 0.0015 2667 0.0586958 294.15 -0.0260576 0 
26 1 0.03541 0.0476382 -0.0161265 -7.33363e-05 -1.09123e-05 -0.00101904 -3.87604e-07 1.40778e-07 1.91608e-06 -0.000191207 -0.0216684 0.0101601 0.0015 2667 0.0389093 294.15 0.0283903 0 
27 1 0.00624482 0.0169243 -0.0218253 0.000101659 2.29432e-05 -0.00124086 -7.60757e-07 -1.73852e-08 2.63645e-06 -0.00655873 0.00670172 -0.00463437 0.0015 2667 0.0227012 294.15 -0.0116533 0 
28 1 0.046115 0.0466276 -0.0490738 3.71781e-05 1.19257e-06 -0.000536956 -1.03833e-06 8.96573e-07 7.51711e-07 -0.00568448 -0.0440479 0.0561489 0.0015 2667 0.0673412 294.15 -0.0069054 0 
29 2 -0.0340818 0.0290406 -0.0979282 -4.92752e-06 9.92711e-06 -0.000188611 -8.81523e-06 -5.0806e-06 5.01866e-06 0.00487579 0.00811707 -0.00639631 0.003 2521 0.103689 294.15 -0.426571 0 
30 1 -0.0443624 0.0397944 -0.0573478 4.57091e-05 1.05756e-05 -0.000554421 4.41175e-06 8.20684e-06 6.7081e-06 0.00855257 0.00575729 0.0186812 0.0015 2667 0.0725037 294.15 -0.0018503 0 
31 1 0.0153408 0.0499007 -0.0244477 6.16841e-05 -9.97137e-06 -0.0011889 -1.95607e-07 2.02734e-06 1.65453e-06 -0.00293204 -0.0177932 0.00277724 0.0015 2667 0.0288623 294.15 0.00396326 0 
32 1 0.00432531 0.043821 -0.0435026 9.22959e-05 1.5092e-05 -0.000985247 8.72851e-07 3.75969e-06 1.10706e-06 -0.00822122 -0.0340621 -0.028588 0.0015 2667 0.0437171 294.15 -0.00966411 0 
33 1 -0.0325544 0.034095 -0.0358374 0.000154234 2.46575e-05 -0.000963662 2.84636e-06 1.70684e-06 3.98197e-06 -0.0575291 -0.0260025 0.0189875 0.0015 2667 0.048416 294.15 -6.95562e-05 0 
34 2 -0.0400905 0.00519072 -0.088006 1.2122e-05 6.97045e-06 -0.000272111 5.39613e-06 2.19822e-06 6.5363e-06 0.0291479 -0.00842243 -0.00961405 0.003 2521 0.0967073 294.15 -0.579856 0 
35 2 -0.0974785 0.0264118 -0.0116627 0.000304072 -6.10305e-06 -0.000215534 -9.87243e-06 -4.41966e-07 2.45546e-06 -0.0024974 0.0297062 -0.0273278 0.003 2521 0.0981737 294.15 -0.103307 0 
36 1 -0.00598996 0.0219881 -0.0179527 0.000193237 2.15709e-05 -0.00132719 -1.41362e-06 1.43601e-06 2.04376e-06 0.00735042 0.00173477 0.0278418 0.0015 2667 0.0189256 294.15 0.00278706 0 
37 1 0.060912 0.02285 -0.0401296 2.69107e-05 -1.17955e-05 -0.000454738 1.68406e-06 -7.9409e-07 2.12127e-06 0.0659862 0.0593858 -0.0140862 0.0015 2667 0.0729429 294.15 0.0214743 0 
38 1 -0.0298184 0.0115452 -0.0227351 0.000281914 2.77699e-05 -0.00114847 -1.37638e-06 1.39357e-06 2.56759e-06 -0.0197706 0.0138931 0.0140171 0.0015 2667 0.037497 294.15 0.00385319 0 
39 1 -0.00114149 0.0393179 -0.0398639 0.000107171 1.80667e-06 -0.00103028 -7.70171e-07 -7.16612e-08 1.74658e-06 0.0392866 -0.00780324 0.0205819 0.0015 2667 0.0398802 294.15 0.00130159 0 
40 2 -0.0938255 0.0484906 -0.0247032 0.00018893 8.28918e-06 -0.00019217 -4.73745e-06 -1.61482e-06 -3.44863e-07 0.0114614 0.0137298 0.00120326 0.003 2521 0.0970231 294.15 -0.186047 0 
41 1 0.0135865 0.00907555 -0.0702465 5.80759e-05 2.64004e-06 -0.000573795 -9.00776e-06 -2.84665e-06 9.0231e-06 -0.0222979 -0.00101005 0.0207589 0.0015 2667 0.0715483 294.15 0.00815283 0 
42 1 0.0750291 0.0390466 -0.0205631 -0.000102063 4.25347e-06 -0.00037386 3.53034e-07 -2.85251e-06 2.44638e-06 -0.0419604 -0.0680922 0.0097181 0.0015 2667 0.077796 294.15 -0.0106499 0 
43 1 -0.0208558 0.043901 -0.0461125 0.000113254 -2.4275e-06 -0.000893474 2.63735e-07 2.64316e-06 -2.24463e-07 0.0769044 0.0376062 0.0434438 0.0015 2667 0.0506096 294.15 -0.00494516 0 
44 1 -0.0214703 0.0394725 -0.0433477 0.000110149 2.30866e-05 -0.000949876 -1.16771e-06 8.34528e-07 2.76974e-06 0.00678831 -0.0558347 -0.0212206 0.0015 2667 0.0483735 294.15 0.00142912 0 
45 1 -0.0346891 0.0407125 -0.0191993 0.000345293 3.1243e-05 -0.00110059 -1.37674e-06 2.80897e-07 8.2374e-07 0.0018759 0.0232181 -0.0374854 0.0015 2667 0.0396478 294.15 -0.00792731 0 
46 1 -0.0191097 0.0319877 -0.0139286 0.000298442 2.97995e-05 -0.00131226 -1.44174e-06 2.10863e-07 2.70228e-06 -0.00375734 -0.00601915 0.00926692 0.0015 2667 0.0236471 294.15 -0.00821912 0 
47 1 0.0149666 0.0181793 -0.0379294 9.48506e-05 1.01365e-05 -0.00103067 -3.82624e-06 -2.27104e-07 -4.16571e-06 -0.04752 -0.00511658 -0.0809252 0.0015 2667 0.0407755 294.15 -0.0014161 0 
48 2 0.0939892 0.0183385 -0.0258515 -4.24978e-05 -5.15563e-06 -0.000133246 3.08794e-06 -1.3071e-06 2.13693e-06 0.00405433 -0.000881375 0.00235698 0.003 2521 0.0974796 294.15 0.115522 0 
49 1 0.0512168 0.0227319 -0.0140405 -0.000138725 -7.97362e-06 -0.000780147 -2.78615e-07 -6.88814e-08 3.13898e-06 -0.0170148 -0.0195949 -0.0108245 0.0015 2667 0.0531065 294.15 -0.0151669 0 
50 1 0.0461756 0.0308275 -0.0450527 3.25688e-05 3.93693e-05 -0.000547838 5.12578e-07 -2.04525e-06 7.14585e-08 -0.0283943 -0.0312334 -0.00413716 0.0015 2667 0.064513 294.15 0.00081838 0 
51 1 -0.0049718 0.0411753 -0.0584986 8.07822e-05 -1.17258e-05 -0.000788699 2.36573e-06 5.47747e-06 4.09332e-06 -0.0313347 0.0363932 -0.0134727 0.0015 2667 0.0587095 294.15 0.00184622 0 
52 1 0.0357833 0.0387103 -0.0653387 2.96602e-05 2.07008e-05 -0.000457981 -1.75941e-07 -1.20362e-06 9.96529e-07 -0.0101829 -0.00849753 0.00406392 0.0015 2667 0.0744955 294.15 -0.0043413 0 
53 2 0.0499051 0.0340071 -0.00406709 -0.000286553 -9.77738e-06 -0.000820124 1.41603e-06 -5.70707e-07 1.37144e-05 0.00264662 -0.0120445 -0.00313848 0.003 2521 0.0500705 294.15 0.046673 0 
54 1 0.020198 0.0130716 -0.0225598 3.18703e-05 -1.18894e-06 -0.00114585 -1.10838e-06 -2.06024e-06 2.8787e-06 0.00832138 0.0376981 -0.00348577 0.0015 2667 0.0302804 294.15 0.00740418 0 
55 1 -0.0142422 0.0119903 -0.0288545 0.000164892 4.51697e-05 -0.00121428 -1.38581e-06 4.84681e-06 -3.36981e-06 -0.00368427 0.0652395 0.0482323 0.0015 2667 0.032178 294.15 0.00651139 0 
56 1 -0.0280338 0.00257647 -0.0303982 0.000210332 1.58655e-05 -0.00106797 -1.7323e-06 6.86879e-08 1.66677e-06 -0.00456988 0.0682012 -0.0134979 0.0015 2667 0.0413515 294.15 -0.00246468 0 
57 2 0.0754083 0.0093795 -0.0641884 5.05181e-05 -5.38371e-06 -0.000164116 -3.99325e-06 4.52728e-07 -2.52988e-06 0.00785476 -0.00102421 -0.0112042 0.003 2521 0.0990281 294.15 0.0449923 0 
58 2 -0.0116377 0.00750743 -0.0847701 1.32932e-05 -5.88763e-06 -0.000406638 -2.39003e-06 -5.24164e-07 7.42481e-06 -0.00316306 -0.00207685 0.00168304 0.003 2521 0.0855652 294.15 -0.0193964 0 
59 1 0.000603961 6.98944e-05 -0.0263854 0.000147182 -8.11968e-06 -0.00127302 -1.99172e-06 -1.26603e-06 5.75379e-06 0.0183683 -0.0209729 -0.0249434 0.0015 2667 0.0263923 294.15 -4.52018e-05 0 
60 1 0.0412814 0.0192152 -0.0283386 -1.25728e-05 3.19982e-06 -0.00081203 -1.08344e-06 -5.25344e-07 1.73908e-06 0.00786087 0.0175892 0.00209863 0.0015 2667 0.0500722 294.15 -0.00233845 0 
61 1 -0.0337474 0.0297087 -0.0773172 3.26392e-05 1.53472e-05 -0.00040929 6.86984e-08 -2.59126e-06 1.66805e-06 -0.012957 -0.0234332 0.00809233 0.0015 2667 0.0843614 294.15 -0.0480906 0 
62 1 -0.0624061 0.000521993 -0.0155068 0.000426086 1.54535e-05 -0.000669437 -1.58957e-06 2.14246e-07 1.60906e-06 0.00811292 -7.24823e-05 0.00333104 0.0015 2667 0.0643038 294.15 0.0619266 0 
63 1 0.00552173 0.0160453 -0.0623843 5.63528e-05 1.06765e-05 -0.000711942 -2.68829e-06 5.11272e-06 -2.37078e-06 -0.0977309 -0.0295437 0.014402 0.0015 2667 0.0626282 294.15 -0.0432011 0 
64 1 0.00735711 0.0133611 -0.0472771 5.55552e-05 9.51279e-06 -0.000950193 3.3944e-06 -1.38872e-06 2.80656e-06 0.0294693 -0.0976143 -0.0375061 0.0015 2667 0.0478461 294.15 -0.0591318 0 
65 1 -0.0340383 0.0356957 -0.0337832 0.000179568 2.70891e-05 -0.000947134 -1.58903e-07 -2.72499e-06 -2.30315e-06 -0.00986751 0.0505442 -0.00772897 0.0015 2667 0.0479574 294.15 0.000265487 0 
66 2 -0.105413 0.0178292 -0.0115943 0.000192294 -2.24928e-06 -0.000118938 -4.46229e-06 -1.1385e-06 1.22114e-06 -0.00520639 0.0182654 -0.00606796 0.003 2521 0.106049 294.15 0.222509 0 
67 1 0.00939554 0.00870119 -0.0586962 6.67674e-05 1.90695e-05 -0.0007353 1.57332e-07 -2.47672e-06 -2.22004e-06 -0.0133622 0.0642553 -0.0277711 0.0015 2667 0.0594435 294.15 0.000744201 0 
68 1 -0.0147242 0.0486206 -0.0254207 0.00018456 2.84983e-05 -0.00120514 -9.7998e-07 2.9662e-07 2.78261e-06 0.0127211 0.00308529 -0.0018671 0.0015 2667 0.0293771 294.15 -0.00532077 0 
69 2 -0.102111 0.0307241 -0.0312852 7.27825e-05 1.81866e-05 -6.35544e-05 -5.7779e-07 2.67095e-07 -1.36272e-06 0.000107858 0.00739576 -0.0035376 0.003 2521 0.106797 294.15 -0.204698 0 
70 1 0.0409726 0.0490683 -0.0463508 5.78104e-05 6.23675e-06 -0.000641951 -7.7147e-06 7.60123e-07 7.26085e-06 -0.0153171 -0.0536742 0.0012628 0.0015 2667 0.0618639 294.15 0.00138466 0 
71 1 0.0411585 0.0264115 -0.0473578 8.53725e-05 2.98353e-05 -0.000646556 -2.33032e-06 1.31386e-06 5.8959e-06 -0.131144 0.0950023 -0.0976033 0.0015 2667 0.0627438 294.15 -0.0103545 0 
72 1 -0.0430371 0.0192866 -0.0231115 0.00030119 2.99716e-05 -0.000952785 -1.27812e-06 -4.96423e-07 1.57335e-06 0.0210901 0.0275984 0.0235597 0.0015 2667 0.0488501 294.15 1.20949e-05 0 
73 1 -0.06679 0.0260853 -0.0553451 3.78337e-05 9.27067e-06 -0.000355981 -7.48603e-07 -8.61789e-07 -4.51138e-07 -0.0470394 0.0286545 0.0131082 0.0015 2667 0.0867409 294.15 -0.00857955 0 
74 1 0.00214234 0.0140103 -0.0280701 0.000112792 3.14758e-05 -0.00120272 1.16035e-08 -2.91611e-06 2.69866e-06 0.0527327 0.00949848 0.0514363 0.0015 2667 0.0281517 294.15 -0.0016374 0 
75 1 -0.00407221 0.0277074 -0.033603 0.000139678 1.03176e-05 -0.00116333 -7.99597e-07 2.30168e-07 2.52059e-06 0.0161076 -0.0254123 -0.00286103 0.0015 2667 0.0338489 294.15 0.000653646 0 
76 1 0.0268712 0.0306087 -0.0936288 4.808e-05 4.17439e-06 -0.000217169 7.07453e-07 2.24782e-07 2.32413e-07 -0.00244441 0.00700867 -0.00650702 0.0015 2667 0.0974085 294.15 0.0524198 0 
77 1 -0.0065086 0.0149463 -0.0340729 0.000128279 2.18833e-05 -0.00112462 3.65698e-06 1.99074e-06 1.82262e-06 0.0253674 0.0142151 -0.00996475 0.0015 2667 0.034689 294.15 0.00928015 0 
78 1 0.0346118 0.0478934 -0.0566867 8.19728e-05 2.10716e-06 -0.000574515 1.29582e-06 4.8648e-06 -3.47683e-06 -0.0587101 0.0309602 -0.0474342 0.0015 2667 0.0664181 294.15 0.0106705 0 
79 2 -0.0944892 0.00415883 -0.0661441 -1.50513e-06 3.11463e-06 -3.97974e-05 -6.3167e-06 -4.90198e-06 5.64265e-06 -0.00500746 -0.00674639 0.0175055 0.003 2521 0.11534 294.15 0.285832 0 
80 1 -0.0191274 0.00805906 -0.0470213 8.90939e-05 2.74982e-05 -0.000905005 -1.86499e-06 3.91552e-07 9.42473e-07 -0.00110181 0.0265534 0.030208 0.0015 2667 0.0507628 294.15 -0.0032251 0 
81 2 0.0644026 0.00254382 0.000987807 -0.000385759 -5.53103e-06 -0.000576362 4.08711e-06 -7.62932e-07 1.01747e-05 0.00128203 -0.0163151 0.00112129 0.003 2521 0.0644102 294.15 0.00520584 0 
82 1 -0.0385379 0.0338393 -0.0638157 3.69441e-05 4.05933e-06 -0.000549406 -3.78377e-06 -4.22619e-06 2.74112e-06 0.0364201 0.0254869 0.0382358 0.0015 2667 0.0745494 294.15 0.0211599 0 
83 1 0.0159494 0.00905831 -0.0722975 6.4161e-05 7.67406e-06 -0.00052842 5.49081e-06 1.18023e-05 -2.07475e-05 0.192866 0.0308648 0.154183 0.0015 2667 0.0740359 294.15 -0.0148727 0 
84 1 0.00485033 0.012373 -0.064401 8.89602e-05 2.87132e-05 -0.000715343 6.47865e-07 1.99605e-06 3.21338e-06 -0.0143067 -0.0241269 0.00903323 0.0015 2667 0.0645834 294.15 0.000595185 0 
85 1 0.00794813 0.0451061 -0.0725004 8.90519e-05 6.11037e-06 -0.000576523 4.9191e-06 1.268e-06 6.00425e-07 0.0862896 0.0149272 0.0707225 0.0015 2667 0.0729348 294.15 -0.00268028 0 
86 2 -0.0895352 0.0355775 -0.0753894 -3.5667e-06 6.88664e-06 -2.83093e-05 -5.14051e-06 3.07007e-06 -9.33819e-06 -0.00511342 0.0362719 0.0125857 0.003 2521 0.117047 294.15 4.97923 0 
87 1 -0.0427838 0.00230672 -0.0330293 0.000208867 2.69815e-05 -0.00083988 -7.49062e-07 -5.67813e-07 1.81929e-06 0.00299953 0.000221296 -0.010535 0.0015 2667 0.0540498 294.15 0.000399619 0 
88 1 0.00296581 0.0432188 -0.0208913 0.000120962 -1.65246e-06 -0.00128734 -7.05684e-07 -1.68427e-06 8.00008e-07 -0.0149103 0.0149787 0.022343 0.0015 2667 0.0211008 294.15 0.00240548 0 
89 1 -0.00153532 0.0438495 -0.0428032 0.000115459 1.70646e-05 -0.00102243 -1.14229e-06 -5.41412e-07 1.98175e-06 -0.00725418 -0.00773804 -0.00895702 0.0015 2667 0.0428307 294.15 -0.00662201 0 
90 1 -0.0513193 0.00336335 -0.017438 0.000403322 3.26638e-05 -0.000851822 -1.51988e-06 -7.72564e-07 1.77262e-06 0.0224474 0.0408441 -0.00178211 0.0015 2667 0.054201 294.15 0.000977135 0 
91 2 0.00717533 0.00490389 -0.0730264 6.01076e-05 1.27238e-05 -0.000572446 -1.22015e-05 -6.82402e-06 -2.03855e-05 -0.000971304 -0.00137143 -0.00819065 0.003 2521 0.073378 294.15 -0.0352453 0 
92 2 0.0134605 0.0452627 -0.0925943 3.89233e-05 7.35183e-07 -0.000319468 -1.21185e-05 -1.73453e-06 1.73475e-05 -0.0150428 -0.019949 0.0110981 0.003 2521 0.0935675 294.15 0.060382 0 
93 1 -0.0583906 0.0156078 -0.0308821 0.00021505 2.08948e-05 -0.000616178 -3.30746e-08 1.15331e-07 2.205e-06 0.00493175 -0.00808111 0.00481232 0.0015 2667 0.0660542 294.15 -0.000691781 0 
94 1 -0.0796839 0.0311857 -0.0303674 0.000193076 1.61341e-06 -0.000336381 -2.98986e-06 -2.11996e-06 -1.31373e-07 0.0487392 0.00834302 -0.0094852 0.0015 2667 0.0852743 294.15 0.0198506 0 
95 2 0.0281444 0.0289019 -0.0173055 -2.4137e-06 2.68244e-07 -0.00112966 -1.24333e-05 -1.51554e-06 2.19206e-05 -0.00254296 -0.0183619 -0.0051332 0.003 2521 0.0330392 294.15 0.0406678 0 
96 1 0.0336002 0.0388745 -0.03695 4.24075e-05 4.53309e-06 -0.000840652 1.55015e-06 1.89618e-06 5.99605e-07 0.046552 -0.00682473 -0.0593728 0.0015 2667 0.0499427 294.15 -0.0111674 0 
97 1 0.0428584 0.0452723 -0.0573755 8.01549e-05 1.36648e-05 -0.000502115 -2.32981e-06 4.21479e-06 -1.13619e-06 -0.0361222 -0.0103063 -0.0626639 0.0015 2667 0.0716156 294.15 -0.0504925 0 
98 1 0.0273898 0.00886639 -0.039405 5.50697e-05 1.27466e-05 -0.00084076 -1.02561e-06 -5.72282e-07 1.40591e-06 -0.00612709 0.00820749 -0.009708 0.0015 2667 0.0479891 294.15 0.000572384 0 
99 2 -0.0674383 0.0271165 -0.0956776 2.48832e-05 -4.70275e-05 -4.52859e-05 -5.82852e-06 -5.34266e-07 4.83389e-07 -0.0275616 0.0371776 -0.0388045 0.003 2521 0.117056 294.15 4.78698 0 
100 1 0.0279602 0.0429973 -0.043629 6.882e-05 1.17403e-05 -0.000827563 6.29724e-06 5.62621e-06 -6.65614e-07 0.0238896 -0.181385 -0.0247668 0.0015 2667 0.0518195 294.15 0.00602314 0 
101 2 -0.0800309 0.0411773 -0.0582173 1.55051e-05 7.59533e-09 -0.000192833 -7.63033e-06 1.95345e-06 -1.38324e-06 -0.00599159 -0.0061247 -0.00244546 0.003 2521 0.0989656 294.15 0.00333076 0 
102 1 0.0398133 0.0472271 -0.0303479 1.79689e-05 3.15961e-06 -0.00083114 6.26148e-08 2.65256e-06 4.00385e-06 0.0535297 0.0702936 0.0212777 0.0015 2667 0.0500609 294.15 0.00248344 0 
103 2 -0.0945928 0.00642785 -0.00435797 0.000400385 1.39135e-05 -0.00028298 -8.49343e-06 -2.7132e-08 3.5701e-06 -0.00376554 0.0260736 0.000644448 0.003 2521 0.0946932 294.15 0.0891077 0 
104 1 0.0142022 0.0340459 -0.0223537 5.53178e-05 1.16411e-05 -0.00119279 5.59677e-07 -4.97863e-06 4.77053e-08 -0.073345 -0.00836288 -0.0284812 0.0015 2667 0.0264838 294.15 -0.00929922 0 
105 2 0.0571292 0.0204451 -0.086688 4.73073e-05 -2.30504e-05 -0.000149098 -1.21272e-06 2.23835e-06 4.18368e-06 0.0222331 -0.00654388 -0.00490398 0.003 2521 0.10382 294.15 0.0782753 0 
106 1 0.0362613 0.0477123 -0.0407846 5.24603e-05 1.96153e-05 -0.000773755 3.68261e-06 -1.39321e-06 9.15901e-07 0.0550579 0.11571 -0.0688317 0.0015 2667 0.0545735 294.15 -0.00747122 0 
107 2 0.0471099 0.0192749 -0.0464522 6.82962e-05 9.53564e-06 -0.000585906 -8.05884e-06 -1.88329e-06 1.02418e-07 -0.005239 -0.00989684 -0.00042624 0.003 2521 0.06616 294.15 -0.0925402 0 
108 1 -0.024381 0.0101434 -0.0601575 2.07477e-05 2.71425e-05 -0.000659985 3.50287e-08 -6.10059e-07 5.09055e-06 -0.048893 -0.0525499 0.00805481 0.0015 2667 0.0649104 294.15 0.001278 0 
109 1 0.0413478 0.0334488 -0.0597207 6.10932e-05 3.12293e-06 -0.000486043 -1.74247e-06 -5.31415e-06 -1.15416e-06 0.0816487 0.116906 -0.0106005 0.0015 2667 0.0726375 294.15 -0.00196917 0 
110 1 -0.044542 0.0474295 -0.0268281 0.000269538 2.79204e-05 -0.000884604 -1.83114e-06 -1.15171e-06 -6.94208e-07 0.047806 0.0226528 -0.00633005 0.0015 2667 0.0519975 294.15 0.00837367 0 
111 1 0.00388613 0.011251 -0.0135666 0.000117264 -3.76176e-06 -0.00133578 -6.3156e-07 1.4465e-07 3.09366e-06 -0.00918411 -0.010092 -0.00248381 0.0015 2667 0.0141122 294.15 -0.00776546 0 
112 2 -0.0649674 0.0328182 -0.0973243 1.86788e-05 -1.07182e-05 -3.1628e-05 -4.26329e-06 -2.59586e-06 -4.1477e-06 0.0165864 0.0132117 -0.00473108 0.003 2521 0.117016 294.15 4.81603 0 
113 1 0.00536335 0.0366183 -0.02737 0.00010468 1.20856e-05 -0.00120823 -2.20308e-07 6.20987e-07 2.76246e-06 -0.00112153 -0.00613561 0.0144542 0.0015 2667 0.0278905 294.15 0.00533408 0 
114 1 -0.0351036 0.00341577 -0.0183971 0.000348803 3.6364e-05 -0.00110937 -1.03413e-06 -5.74132e-07 2.81836e-06 0.0404963 0.0405166 0.0141532 0.0015 2667 0.0396322 294.15 -0.00429983 0 
115 1 0.033586 0.0467909 -0.0541121 5.39266e-05 -1.3853e-05 -0.000636674 -7.77656e-06 1.43648e-05 -1.1795e-05 0.123779 0.132492 -0.0995042 0.0015 2667 0.0636878 294.15 0.0162371 0 
116 2 -0.0824954 0.0357622 -0.0588251 1.04541e-05 4.18293e-06 -0.000156641 -2.94938e-07 6.58077e-08 2.81193e-06 -0.00107737 0.0137951 0.00246196 0.003 2521 0.101321 294.15 -0.289914 0 
117 1 -0.02343 0.0284876 -0.0211699 0.000287503 2.53961e-05 -0.00125377 4.53632e-07 -1.81711e-06 2.90496e-06 0.0268863 0.0248185 -0.00608926 0.0015 2667 0.0315773 294.15 -0.00271432 0 
118 2 0.0751079 0.0455268 -0.0425269 2.11428e-05 1.08781e-05 -0.000279824 4.21065e-06 4.78616e-06 1.88038e-06 0.015778 -0.0158477 0.0161075 0.003 2521 0.0863118 294.15 -0.212183 0 
119 1 0.0234451 0.0498475 -0.0304532 6.18251e-05 3.0468e-06 -0.00103125 -3.70442e-06 4.4998e-06 6.36075e-06 0.0328819 0.0851651 -0.00116094 0.0015 2667 0.0384327 294.15 -0.00654558 0 
120 1 -0.0127123 0.0201905 -0.0226905 0.000218176 2.35371e-05 -0.00127546 -3.11616e-06 -1.28721e-06 -4.77788e-07 0.0390146 0.0115522 0.0446964 0.0015 2667 0.0260089 294.15 -0.0100729 0 
121 1 0.0148703 0.0369745 -0.0329193 6.64251e-05 7.24772e-06 -0.0010707 7.94264e-07 -4.78304e-07 6.94932e-07 0.0199253 0.0230739 0.0278427 0.0015 2667 0.0361221 294.15 -3.00832e-05 0 
122 2 0.101839 0.0322714 -0.0575784 4.91556e-06 -7.5759e-06 -2.28807e-05 -4.0989e-06 2.01216e-07 1.6025e-06 0.000855697 0.00287567 -0.00359145 0.003 2521 0.11699 294.15 0.181015 0 
123 2 -0.00753078 0.00950939 -0.0783314 3.69066e-05 8.56864e-06 -0.000514094 3.44043e-06 -6.63743e-06 9.03686e-06 0.0121001 0.0319912 0.0315901 0.003 2521 0.0786925 294.15 -0.120369 0 
124 2 0.0350538 0.0288699 -0.0758714 8.0143e-05 1.43774e-06 -0.000389924 3.27085e-06 -1.06628e-05 1.21835e-05 0.0130636 -0.01022 0.0167829 0.003 2521 0.0835777 294.15 0.079441 0 
125 1 -0.0203335 0.0438952 -0.0516761 8.65472e-05 -4.87346e-06 -0.000833983 1.65012e-06 1.14266e-06 1.74407e-06 0.0154724 -0.0376763 -0.0875912 0.0015 2667 0.0555327 294.15 -0.00191859 0 
126 1 0.0192531 0.0432985 -0.0177431 4.17066e-05 -4.9276e-06 -0.00119216 -4.82307e-07 -1.791e-07 3.10489e-06 0.0084208 0.000337177 0.00615143 0.0015 2667 0.0261821 294.15 -0.00487071 0 
127 2 -0.0562133 0.0479461 0.00189606 0.000765998 4.22482e-05 -0.000845003 -1.44264e-05 5.81459e-07 1.35894e-05 -0.000305643 0.0186086 0.00221268 0.003 2521 0.0562453 294.15 -0.0688202 0 
128 1 0.0457161 0.0144116 -0.0364845 2.18423e-05 1.37946e-05 -0.000699637 -7.76542e-06 7.26358e-07 9.1747e-06 -0.0501699 0.0770309 0.00873962 0.0015 2667 0.05849 294.15 0.00258813 0 
129 1 0.0477722 0.0466189 -0.0304243 6.82319e-08 2.04499e-06 -0.000726957 1.93356e-06 -1.09122e-06 3.05905e-06 -0.0223908 -0.0470251 0.0167782 0.0015 2667 0.0566376 294.15 0.00962969 0 
130 2 0.0342287 0.0317192 -0.0386509 5.95172e-05 2.47152e-05 -0.000802053 -2.88581e-06 -9.61435e-07 1.43315e-05 0.00150099 -0.0161668 -0.00145171 0.003 2521 0.0516284 294.15 -0.0973777 0 
131 1 -0.0295427 0.0276554 -0.0646436 4.32489e-05 1.82261e-05 -0.000567054 -1.18696e-06 -1.45266e-07 2.1683e-06 -0.0238522 0.0145364 -0.0209469 0.0015 2667 0.0710743 294.15 -0.0163917 0 
132 1 0.0491167 0.0268177 -0.0307924 -1.39034e-05 -2.30542e-05 -0.000673119 -6.47561e-07 7.54679e-08 1.06868e-06 0.015889 0.000518012 -0.00387858 0.0015 2667 0.0579709 294.15 0.00761096 0 
133 2 -0.052578 0.0309105 -0.0651762 -2.23408e-06 -8.24464e-06 -0.00040155 2.14431e-06 1.05542e-06 9.90529e-06 -0.00337258 0.017449 -0.011033 0.003 2521 0.08374 294.15 -0.279563 0 
134 1 -0.00108329 0.00336744 -0.0318884 0.000143657 3.32403e-05 -0.00117592 -1.64701e-06 1.07701e-06 -1.08545e-06 0.0048236 -0.0427185 -0.00558221 0.0015 2667 0.0319068 294.15 -0.00207825 0 
135 2 -0.0572399 0.0368369 -0.0330525 0.000194157 2.41174e-05 -0.000645895 -4.66017e-06 -1.33454e-06 8.65007e-06 -0.0047734 0.00196389 -0.00397088 0.003 2521 0.0660974 294.15 0.0456456 0 
136 1 -0.0378567 0.0256074 -0.0345259 0.000180451 2.69367e-05 -0.000916563 5.02469e-07 -2.41126e-06 1.43963e-06 0.0278241 0.0148818 0.0180296 0.0015 2667 0.0512364 294.15 -0.00364249 0 
137 2 -0.105842 0.0435171 -0.0396275 3.55501e-05 8.63193e-06 -5.70528e-05 -6.18479e-06 4.55823e-07 5.03704e-06 -0.0087356 0.0167292 -0.0097039 0.003 2521 0.113017 294.15 -0.242165 0 
138 2 0.0376512 0.0430084 0.00331724 -0.000368202 1.50128e-05 -0.00104269 2.01645e-06 -3.84347e-07 1.47945e-05 -0.0036901 -0.0362821 0.00968177 0.003 2521 0.0377971 294.15 -0.0341816 0 
139 1 -0.00978992 0.0473065 -0.0404227 0.000109886 3.45756e-05 -0.00105992 -5.65935e-07 -1.44817e-06 6.56601e-07 0.0122478 0.00730435 -0.000702888 0.0015 2667 0.0415913 294.15 -0.00150047 0 
140 1 -0.0239052 0.0447472 -0.0259313 0.000227466 2.78714e-05 -0.0011622 -8.78046e-07 -1.23407e-06 3.80876e-06 -0.0232186 -0.0316334 0.00256075 0.0015 2667 0.0352689 294.15 0.00311065 0 
141 1 -0.0485604 0.0151483 -0.0547406 1.53645e-05 1.45764e-05 -0.000552643 9.32578e-06 -5.29291e-07 8.84382e-07 0.02124 0.0481456 0.0048702 0.0015 2667 0.0731754 294.15 0.00246628 0 
142 1 -0.0151163 0.0237754 -0.0420664 0.000118719 1.20808e-05 -0.00100801 -9.38984e-07 -6.19263e-06 8.89554e-07 0.0156204 0.00362934 0.00305484 0.0015 2667 0.0446999 294.15 0.0045506 0 
143 1 -0.0430987 0.0135105 -0.0138236 0.00044096 3.68413e-05 -0.001032 -1.57339e-06 -5.23489e-08 3.14298e-06 0.00294906 0.019349 0.00142316 0.0015 2667 0.0452613 294.15 0.0172309 0 
144 1 -0.00891438 0.0443533 -0.0562605 9.28636e-05 -3.03283e-06 -0.000814842 2.06904e-06 9.60638e-07 -5.78501e-06 0.0231111 0.0220891 0.017313 0.0015 2667 0.0569623 294.15 -0.0113351 0 
145 1 -0.0345237 0.00996506 -0.0275137 0.000264188 2.03273e-05 -0.000998428 -1.07481e-06 1.98942e-07 1.65732e-06 0.00137136 -0.00865701 -0.00685502 0.0015 2667 0.0441463 294.15 0.00480696 0 
146 1 0.0368028 0.0309612 -0.0442832 5.5973e-05 1.88709e-05 -0.000716159 5.66137e-07 -2.21575e-06 2.55894e-06 0.0131626 0.0551226 0.0799246 0.0015 2667 0.0575799 294.15 0.00325389 0 
147 2 0.1088 0.00721429 -0.00682427 -9.45207e-05 -8.0473e-06 -3.56299e-05 2.11367e-06 7.4282e-08 9.24072e-07 -0.00303248 -0.00455448 0.00532812 0.003 2521 0.109014 294.15 0.0593549 0 
148 2 0.0869795 0.02015 -0.0411327 -5.12159e-07 -1.04436e-06 -0.000153508 -1.80827e-07 -2.11789e-06 1.73033e-06 -0.00141161 -0.011193 0.000836062 0.003 2521 0.0962151 294.15 0.0455849 0 
149 1 -0.0203337 0.00233539 -0.0268547 0.000202968 3.10126e-05 -0.00119058 -1.40388e-06 1.32571e-06 3.13529e-06 -0.0448299 0.0704313 -0.0310025 0.0015 2667 0.0336843 294.15 -0.012681 0 
150 1 0.0314647 0.00897584 -0.0626076 5.98967e-05 -5.51664e-06 -0.000510409 -2.07207e-07 1.70106e-07 1.32581e-07 -0.010975 0.0154032 0.0140776 0.0015 2667 0.0700696 294.15 -0.00613857 0 
151 1 0.0050431 0.0181401 -0.0243166 0.000107188 1.44498e-05 -0.00123418 -4.52863e-07 4.02814e-07 2.45343e-06 -0.00471226 0.00711581 -0.00415799 0.0015 2667 0.024834 294.15 0.00192368 0 
152 1 0.0161035 0.0223641 -0.0453995 4.29527e-05 8.87554e-06 -0.000888694 -1.14152e-06 1.443e-06 -3.20694e-07 -0.0286395 -0.0389874 0.00933541 0.0015 2667 0.048171 294.15 0.000128938 0 
153 1 -0.000404182 0.037297 -0.0318089 0.00011299 1.54451e-05 -0.00115124 6.09693e-07 -1.01739e-07 1.9284e-06 -0.0100026 0.0117408 -0.00489374 0.0015 2667 0.0318115 294.15 0.000800166 0 
154 1 -0.0487645 0.0173651 -0.0498962 7.44827e-05 1.09621e-05 -0.000599417 2.37946e-06 1.26646e-05 8.04322e-06 -0.0825775 -0.108714 0.0462431 0.0015 2667 0.0697683 294.15 0.00955717 0 
155 1 0.0361891 0.0374539 -0.0403079 6.78665e-05 2.97015e-05 -0.00074305 -6.39147e-07 1.8328e-07 1.17967e-06 -0.00290712 -0.0243277 -0.0187876 0.0015 2667 0.0541699 294.15 -0.0213259 0 
156 1 0.0588562 0.0295615 -0.0222793 -7.90942e-05 -5.65169e-07 -0.000592621 1.76783e-07 -3.50616e-07 1.40987e-06 0.00620438 -0.00296664 0.0127805 0.0015 2667 0.0629319 294.15 -0.00276142 0 
157 1 0.0492648 0.0210089 -0.0266572 -1.66969e-05 4.19447e-06 -0.000705781 -3.63429e-07 2.536e-08 1.16532e-06 -0.0149703 -0.0021184 -0.00619171 0.0015 2667 0.0560145 294.15 -0.00388267 0 
158 1 0.0213862 0.0191353 -0.0352503 6.56165e-05 1.9357e-05 -0.0009935 -5.82544e-06 -1.36752e-06 4.16575e-06 -0.0653928 0.0444805 -0.00469832 0.0015 2667 0.0412305 294.15 0.00691115 0 
159 1 -0.0164986 0.00828076 -0.0397068 0.000134375 8.49273e-06 -0.00102618 -9.26186e-07 8.02841e-07 2.47689e-06 0.0140011 0.0214352 -0.0064078 0.0015 2667 0.042998 294.15 -0.00826387 0 
160 1 0.00882672 0.0164607 -0.059719 6.40276e-05 1.3855e-05 -0.000735768 -1.67161e-06 -1.04358e-05 1.75933e-05 -0.0596993 0.0222032 0.163458 0.0015 2667 0.0603678 294.15 0.0240352 0 