ITEM: TIMESTEP
6600
ITEM: NUMBER OF ATOMS
15235
ITEM: BOX BOUNDS ff pp ff
-0.121 0.121
0 0.05
-0.121 0.121
ITEM: ATOMS id type x y z vx vy vz fx fy fz omegax omegay omegaz radius density v_radialPos f_Temp[0] f_heatFlux[0] f_heatSource[0] 
1 2 -0.0596163 0.0499491 -0.0335165 0.000185986 2.25923e-05 -0.000602622 -0.0292507 0.0206968 -0.0762779 -0.0152519 0.0141825 -0.00129622 0.003 2521 0.0683919 605.109 0.00705297 0 
2 1 0.0014025 0.0194667 -0.0123233 0.000149328 9.70452e-06 -0.00135012 0.00623535 -0.000566535 0.00287489 -0.00848084 -0.0101811 -0.0435266 0.0015 2667 0.0124029 602.647 0.000919756 0 
3 1 -0.0229438 0.0484639 -0.0307094 0.000177696 9.52673e-06 -0.00112084 -0.00807267 0.0141175 0.00328706 0.0222122 0.018591 -0.0144455 0.0015 2667 0.0383338 562.705 0.0011526 0 
4 1 -0.026569 0.0149782 -0.00856772 0.000403904 2.16847e-05 -0.00127686 -0.000678176 0.000339906 -0.000398143 -0.00322496 0.0163642 0.019059 0.0015 2667 0.0279163 622.117 0.000826732 0 
5 2 -0.114852 0.00727836 -0.00529555 0.000128994 5.72238e-06 -2.61934e-05 -0.019398 0.00389603 0.00715449 -0.000743387 0.0185822 0.0103935 0.003 2521 0.114974 763.362 0.000491487 0 
6 2 0.0346899 0.049496 -0.0655638 8.37136e-05 1.18344e-05 -0.000496508 -0.00444579 0.0478529 -0.034336 0.00960932 -0.0134522 0.00750066 0.003 2521 0.0741755 583.962 0.00751195 0 
7 2 -0.0663349 0.0396253 -0.0595073 3.04455e-05 1.47573e-05 -0.000309389 -0.0618499 0.000140423 0.0229683 0.00858826 0.0021123 0.00139399 0.003 2521 0.0891148 639.222 0.00567246 0 
8 1 -0.0241137 0.0378321 -0.0470635 9.53707e-05 4.01453e-06 -0.000858049 -0.00813468 0.0020455 -0.00131163 0.0189285 -0.0172527 0.0141929 0.0015 2667 0.0528814 553.997 0.0012044 0 
9 2 -0.0937923 0.00194073 -0.0426828 5.64449e-05 1.42297e-05 -0.000131504 0.0122224 0.00296686 -0.0185547 -0.00380779 0.0108598 -0.00122428 0.003 2521 0.103048 718.222 0.0025327 0 
10 1 -0.0155971 0.0125758 -0.0607323 8.28285e-05 -3.16262e-06 -0.000728849 0.0217284 0.0282899 0.00328329 0.033991 -0.0205995 0.0100185 0.0015 2667 0.0627031 555.488 0.00118691 0 
11 1 0.024149 0.0473116 -0.0644673 6.98874e-05 2.32517e-05 -0.000594686 0.00575251 0.00980759 -0.0497798 -0.12021 -0.0108459 -0.0541187 0.0015 2667 0.0688419 565.818 0.00114197 0 
12 1 -0.0303178 0.023075 -0.0163514 0.000353791 4.10439e-05 -0.00117927 0.00735178 -0.000853148 -0.0105029 0.0489574 0.0399801 -0.0103288 0.0015 2667 0.0344462 595.754 0.000978589 0 
13 1 -0.040333 0.00929233 -0.0548524 3.92228e-05 1.03814e-05 -0.000672005 0.00178685 -0.00406768 -0.003051 0.00190567 0.0177734 0.00910451 0.0015 2667 0.0680847 570.125 0.00113954 0 
14 2 -0.0304446 0.0113052 -0.0150946 0.000365089 3.61217e-05 -0.00120152 0.000794587 -0.00938945 -0.0109974 0.00316838 0.0161996 0.00118793 0.003 2521 0.0339812 600.427 0.0067566 0 
15 1 0.0473781 0.0112386 -0.0437743 5.03282e-05 4.19624e-06 -0.00058465 -0.00687194 0.00913024 -0.00279971 0.0239821 -0.00153867 0.00843944 0.0015 2667 0.0645048 585.063 0.00109228 0 
16 2 -0.0722538 0.0300093 -0.00118386 0.000679787 2.93785e-05 -0.000573198 -0.00325752 -0.000474526 0.0019481 -0.00172941 0.0194728 0.00207998 0.003 2521 0.0722635 715.517 0.00257932 0 
17 1 -0.0140995 0.038664 -0.0173165 0.000250384 2.86241e-05 -0.00130871 -0.00417505 -0.00196599 -0.0037052 -0.0103893 -0.0148549 -0.0066206 0.0015 2667 0.0223306 583.375 0.00102852 0 
18 1 -0.00184122 0.0101017 -0.0510232 5.78482e-05 1.64894e-05 -0.000908189 0.00925131 -0.0101325 -0.0108956 -0.0261554 -0.0393458 0.00202118 0.0015 2667 0.0510564 548.764 0.00122007 0 
19 2 0.0889437 0.0197266 -0.0156773 -0.000114583 5.89453e-06 -0.00022292 0.0112181 0.00388829 0.0216593 0.00315508 -0.00216931 0.00285144 0.003 2521 0.0903148 701.196 0.00345472 0 
20 2 0.0210681 0.0123108 -0.0959492 4.20241e-05 7.51162e-06 -0.000210121 -0.0777807 -0.217807 -0.0366621 0.00509777 -0.0258445 0.0136876 0.003 2521 0.098235 682.515 0.00351482 0 
21 2 -0.0534939 0.0396006 -0.075583 2.35843e-05 1.66529e-05 -0.000271322 0.0100512 0.0958996 0.169285 0.00287849 0.00638915 0.00209295 0.003 2521 0.092598 651.918 0.00493785 0 
22 2 -0.0629376 0.02452 -0.0986817 1.8217e-05 -6.85809e-06 -4.75021e-05 0.0394592 -0.00389196 0.0410891 0.0085492 0.0287814 -0.00440644 0.003 2521 0.117044 761.806 0.000464388 0 
23 1 -0.022841 0.0382054 -0.0541672 7.21214e-05 -4.35752e-06 -0.000782121 0.00284912 0.00614259 0.00293833 -0.0802398 -0.0351063 -0.0232652 0.0015 2667 0.0587861 554.104 0.00120134 0 
24 1 0.022266 0.0464414 -0.0770278 4.32564e-05 3.12953e-06 -0.000434088 -0.0232241 0.00535801 0.0393494 0.138139 0.054015 0.0931118 0.0015 2667 0.0801814 597.039 0.000967862 0 
25 1 -0.017248 0.0387926 -0.0561044 7.16024e-05 -8.49569e-06 -0.000773102 -0.00206946 -0.00737459 0.0107243 0.0512714 -0.084284 0.0471486 0.0015 2667 0.0586958 553.154 0.00120223 0 
26 1 0.03541 0.0476382 -0.0161265 -7.33363e-05 -1.09123e-05 -0.00101904 -0.000336331 0.000306536 -0.000127335 -0.000191207 -0.0216684 0.0101601 0.0015 2667 0.0389093 604.284 0.000959892 0 
27 1 0.00624482 0.0169243 -0.0218253 0.000101659 2.29432e-05 -0.00124086 -6.57445e-05 -3.45019e-05 -0.00034515 -0.00655873 0.00670172 -0.00463437 0.0015 2667 0.0227012 570.806 0.00109925 0 
28 1 0.046115 0.0466276 -0.0490738 3.71781e-05 1.19257e-06 -0.000536956 -0.00640894 -0.00493125 -0.00631952 -0.00568448 -0.0440479 0.0561489 0.0015 2667 0.0673412 583.201 0.00109488 0 
29 2 -0.0340818 0.0290406 -0.0979282 -4.92752e-06 9.92711e-06 -0.000188611 -0.0691489 -0.0910594 0.00777854 0.00487579 0.00811707 -0.00639631 0.003 2521 0.103689 690.355 0.00323992 0 
30 1 -0.0443624 0.0397944 -0.0573478 4.57091e-05 1.05756e-05 -0.000554421 -0.000779156 -0.0195744 -0.0152557 0.00855257 0.00575729 0.0186812 0.0015 2667 0.0725037 575.133 0.00111584 0 
31 1 0.0153408 0.0499007 -0.0244477 6.16841e-05 -9.97137e-06 -0.0011889 0.000185798 -0.00830955 -0.00719472 -0.00293204 -0.0177932 0.00277724 0.0015 2667 0.0288623 573.338 0.00109479 0 
32 1 0.00432531 0.043821 -0.0435026 9.22959e-05 1.5092e-05 -0.000985247 -0.00512645 -3.32722e-05 -0.0204402 -0.00822122 -0.0340621 -0.028588 0.0015 2667 0.0437171 550.229 0.00121389 0 
33 1 -0.0325544 0.034095 -0.0358374 0.000154234 2.46575e-05 -0.000963662 0.00219386 -0.00184486 0.000706357 -0.0575291 -0.0260025 0.0189875 0.0015 2667 0.048416 563.64 0.00116201 0 
34 2 -0.0400905 0.00519072 -0.088006 1.2122e-05 6.97045e-06 -0.000272111 0.0645191 -0.0474884 -0.061184 0.0291479 -0.00842243 -0.00961405 0.003 2521 0.0967073 656.855 0.00459503 0 
35 2 -0.0974785 0.0264118 -0.0116627 0.000304072 -6.10305e-06 -0.000215534 0.00323828 0.00215142 0.00530659 -0.0024974 0.0297062 -0.0273278 0.003 2521 0.0981737 719.667 0.00259484 0 
36 1 -0.00598996 0.0219881 -0.0179527 0.000193237 2.15709e-05 -0.00132719 -0.00581333 0.00925574 0.00457461 0.00735042 0.00173477 0.0278418 0.0015 2667 0.0189256 581.235 0.00103728 0 
37 1 0.060912 0.02285 -0.0401296 2.69107e-05 -1.17955e-05 -0.000454738 0.00363878 -0.00214728 -0.00403865 0.0659862 0.0593858 -0.0140862 0.0015 2667 0.0729429 610.266 0.000983549 0 
38 1 -0.0298184 0.0115452 -0.0227351 0.000281914 2.77699e-05 -0.00114847 -0.0178 -0.00828535 0.00909254 -0.0197706 0.0138931 0.0140171 0.0015 2667 0.037497 579.571 0.00106779 0 
39 1 -0.00114149 0.0393179 -0.0398639 0.000107171 1.80667e-06 -0.00103028 8.63238e-05 -0.000462246 -0.00089343 0.0392866 -0.00780324 0.0205819 0.0015 2667 0.0398802 549.506 0.00121555 0 
40 2 -0.0938255 0.0484906 -0.0247032 0.00018893 8.28918e-06 -0.00019217 -0.0119527 -0.051895 -0.0497821 0.0114614 0.0137298 0.00120326 0.003 2521 0.0970231 704.056 0.00326553 0 
41 1 0.0135865 0.00907555 -0.0702465 5.80759e-05 2.64004e-06 -0.000573795 0.0287764 0.0123597 -0.00718926 -0.0222979 -0.00101005 0.0207589 0.0015 2667 0.0715483 567.284 0.00112385 0 
42 1 0.0750291 0.0390466 -0.0205631 -0.000102063 4.25347e-06 -0.00037386 0.00607133 0.00750822 -0.00366287 -0.0419604 -0.0680922 0.0097181 0.0015 2667 0.077796 663.999 0.00070443 0 
43 1 -0.0208558 0.043901 -0.0461125 0.000113254 -2.4275e-06 -0.000893474 -0.0198188 0.0198794 -0.0260294 0.0769044 0.0376062 0.0434438 0.0015 2667 0.0506096 552.936 0.00120729 0 
44 1 -0.0214703 0.0394725 -0.0433477 0.000110149 2.30866e-05 -0.000949876 0.000757677 -0.00727844 0.00589935 0.00678831 -0.0558347 -0.0212206 0.0015 2667 0.0483735 553.656 0.00120365 0 
45 1 -0.0346891 0.0407125 -0.0191993 0.000345293 3.1243e-05 -0.00110059 -0.00147099 0.00937347 -0.00685597 0.0018759 0.0232181 -0.0374854 0.0015 2667 0.0396478 591.082 0.00101267 0 
46 1 -0.0191097 0.0319877 -0.0139286 0.000298442 2.97995e-05 -0.00131226 0.000120245 -0.0003223 5.25637e-05 -0.00375734 -0.00601915 0.00926692 0.0015 2667 0.0236471 592.941 0.000978632 0 
47 1 0.0149666 0.0181793 -0.0379294 9.48506e-05 1.01365e-05 -0.00103067 -0.0117918 0.00234188 -0.000898081 -0.04752 -0.00511658 -0.0809252 0.0015 2667 0.0407755 556.7 0.00118657 0 
48 2 0.0939892 0.0183385 -0.0258515 -4.24978e-05 -5.15563e-06 -0.000133246 0.0100654 0.00197142 0.00206301 0.00405433 -0.000881375 0.00235698 0.003 2521 0.0974796 709.813 0.00307061 0 
49 1 0.0512168 0.0227319 -0.0140405 -0.000138725 -7.97362e-06 -0.000780147 0.00551634 0.000379297 -0.00366207 -0.0170148 -0.0195949 -0.0108245 0.0015 2667 0.0531065 632.743 0.00083678 0 
50 1 0.0461756 0.0308275 -0.0450527 3.25688e-05 3.93693e-05 -0.000547838 2.89352e-05 -0.000611548 0.000406146 -0.0283943 -0.0312334 -0.00413716 0.0015 2667 0.064513 583.668 0.00109586 0 
51 1 -0.0049718 0.0411753 -0.0584986 8.07822e-05 -1.17258e-05 -0.000788699 0.00955388 -0.0214083 0.0116406 -0.0313347 0.0363932 -0.0134727 0.0015 2667 0.0587095 551.43 0.00120605 0 
52 1 0.0357833 0.0387103 -0.0653387 2.96602e-05 2.07008e-05 -0.000457981 0.000234778 0.000924083 -9.50552e-05 -0.0101829 -0.00849753 0.00406392 0.0015 2667 0.0744955 584.932 0.00105374 0 
53 2 0.0499051 0.0340071 -0.00406709 -0.000286553 -9.77738e-06 -0.000820124 -0.00194917 -0.0146947 0.00605493 0.00264662 -0.0120445 -0.00313848 0.003 2521 0.0500705 680.187 0.00392594 0 
54 1 0.020198 0.0130716 -0.0225598 3.18703e-05 -1.18894e-06 -0.00114585 -0.000402774 -0.0137251 0.00110579 0.00832138 0.0376981 -0.00348577 0.0015 2667 0.0302804 579.768 0.00106605 0 
55 1 -0.0142422 0.0119903 -0.0288545 0.000164892 4.51697e-05 -0.00121428 -0.000833318 0.0160134 0.00646379 -0.00368427 0.0652395 0.0482323 0.0015 2667 0.032178 562.326 0.0011464 0 
56 1 -0.0280338 0.00257647 -0.0303982 0.000210332 1.58655e-05 -0.00106797 -0.00694173 -0.00593434 -0.00388869 -0.00456988 0.0682012 -0.0134979 0.0015 2667 0.0413515 566.142 0.00114058 0 
57 2 0.0754083 0.0093795 -0.0641884 5.05181e-05 -5.38371e-06 -0.000164116 0.0223607 0.022527 -0.0534727 0.00785476 -0.00102421 -0.0112042 0.003 2521 0.0990281 683.907 0.00388825 0 
58 2 -0.0116377 0.00750743 -0.0847701 1.32932e-05 -5.88763e-06 -0.000406638 -0.00638036 -0.00231525 -0.0241643 -0.00316306 -0.00207685 0.00168304 0.003 2521 0.0855652 606.555 0.00641876 0 
59 1 0.000603961 6.98944e-05 -0.0263854 0.000147182 -8.11968e-06 -0.00127302 3.85917e-05 -0.00274153 -0.00291309 0.0183683 -0.0209729 -0.0249434 0.0015 2667 0.0263923 565.556 0.00112552 0 
60 1 0.0412814 0.0192152 -0.0283386 -1.25728e-05 3.19982e-06 -0.00081203 -0.00115595 0.00304173 0.00318096 0.00786087 0.0175892 0.00209863 0.0015 2667 0.0500722 586.28 0.00107548 0 
61 1 -0.0337474 0.0297087 -0.0773172 3.26392e-05 1.53472e-05 -0.00040929 -0.00689492 -0.0121873 0.0405416 -0.012957 -0.0234332 0.00809233 0.0015 2667 0.0843614 608.022 0.000914857 0 
62 1 -0.0624061 0.000521993 -0.0155068 0.000426086 1.54535e-05 -0.000669437 0.000159114 -0.000240891 0.000848493 0.00811292 -7.24823e-05 0.00333104 0.0015 2667 0.0643038 634.422 0.000833626 0 
63 1 0.00552173 0.0160453 -0.0623843 5.63528e-05 1.06765e-05 -0.000711942 0.0330631 -0.0338779 0.0207076 -0.0977309 -0.0295437 0.014402 0.0015 2667 0.0626282 555.556 0.00118432 0 
64 1 0.00735711 0.0133611 -0.0472771 5.55552e-05 9.51279e-06 -0.000950193 0.00324332 0.00674825 0.00595287 0.0294693 -0.0976143 -0.0375061 0.0015 2667 0.0478461 550.543 0.00121402 0 
65 1 -0.0340383 0.0356957 -0.0337832 0.000179568 2.70891e-05 -0.000947134 -0.00897099 -0.00578572 -0.00142083 -0.00986751 0.0505442 -0.00772897 0.0015 2667 0.0479574 566.412 0.00114908 0 
66 2 -0.105413 0.0178292 -0.0115943 0.000192294 -2.24928e-06 -0.000118938 0.0126005 -0.0093916 0.0217321 -0.00520639 0.0182654 -0.00606796 0.003 2521 0.106049 742.273 0.00152609 0 
67 1 0.00939554 0.00870119 -0.0586962 6.67674e-05 1.90695e-05 -0.0007353 6.199e-05 -0.0163752 -0.00202728 -0.0133622 0.0642553 -0.0277711 0.0015 2667 0.0594435 553.535 0.00119815 0 
68 1 -0.0147242 0.0486206 -0.0254207 0.00018456 2.84983e-05 -0.00120514 8.66528e-05 -0.000317583 0.000927737 0.0127211 0.00308529 -0.0018671 0.0015 2667 0.0293771 564.945 0.00113189 0 
69 2 -0.102111 0.0307241 -0.0312852 7.27825e-05 1.81866e-05 -6.35544e-05 0.0148076 -0.00784808 -0.00538837 0.000107858 0.00739576 -0.0035376 0.003 2521 0.106797 729.924 0.00206627 0 
70 1 0.0409726 0.0490683 -0.0463508 5.78104e-05 6.23675e-06 -0.000641951 -0.00675793 -0.0275538 -0.00961463 -0.0153171 -0.0536742 0.0012628 0.0015 2667 0.0618639 574.372 0.0011324 0 
71 1 0.0411585 0.0264115 -0.0473578 8.53725e-05 2.98353e-05 -0.000646556 0.00722211 0.00559405 -0.0121039 -0.131144 0.0950023 -0.0976033 0.0015 2667 0.0627438 575.919 0.00112607 0 
72 1 -0.0430371 0.0192866 -0.0231115 0.00030119 2.99716e-05 -0.000952785 0.00476659 0.00395728 -0.00187129 0.0210901 0.0275984 0.0235597 0.0015 2667 0.0488501 591.251 0.00103024 0 
73 1 -0.06679 0.0260853 -0.0553451 3.78337e-05 9.27067e-06 -0.000355981 0.0153711 -0.0172744 0.00386825 -0.0470394 0.0286545 0.0131082 0.0015 2667 0.0867409 629.074 0.000860052 0 
74 1 0.00214234 0.0140103 -0.0280701 0.000112792 3.14758e-05 -0.00120272 -0.00231799 -0.0115564 -0.00510872 0.0527327 0.00949848 0.0514363 0.0015 2667 0.0281517 563.145 0.00114017 0 
75 1 -0.00407221 0.0277074 -0.033603 0.000139678 1.03176e-05 -0.00116333 -0.0061319 0.00212173 -0.00161219 0.0161076 -0.0254123 -0.00286103 0.0015 2667 0.0338489 554.172 0.00118902 0 
76 1 0.0268712 0.0306087 -0.0936288 4.808e-05 4.17439e-06 -0.000217169 0.00130639 -0.00310327 -0.00211035 -0.00244441 0.00700867 -0.00650702 0.0015 2667 0.0974085 676.517 0.000532217 0 
77 1 -0.0065086 0.0149463 -0.0340729 0.000128279 2.18833e-05 -0.00112462 -0.00775598 -0.00807545 -0.00382443 0.0253674 0.0142151 -0.00996475 0.0015 2667 0.034689 555.14 0.0011838 0 
78 1 0.0346118 0.0478934 -0.0566867 8.19728e-05 2.10716e-06 -0.000574515 -0.00627957 0.0160782 0.00603509 -0.0587101 0.0309602 -0.0474342 0.0015 2667 0.0664181 572.496 0.0011265 0 
79 2 -0.0944892 0.00415883 -0.0661441 -1.50513e-06 3.11463e-06 -3.97974e-05 0.064693 -0.0301817 0.0943165 -0.00500746 -0.00674639 0.0175055 0.003 2521 0.11534 753.539 0.000874609 0 
80 1 -0.0191274 0.00805906 -0.0470213 8.90939e-05 2.74982e-05 -0.000905005 0.00102256 -0.000489303 -0.00495086 -0.00110181 0.0265534 0.030208 0.0015 2667 0.0507628 551.017 0.00121456 0 
81 2 0.0644026 0.00254382 0.000987807 -0.000385759 -5.53103e-06 -0.000576362 0.00363236 -0.0019697 -0.00782299 0.00128203 -0.0163151 0.00112129 0.003 2521 0.0644102 710.333 -0.0343858 0.0372452 
82 1 -0.0385379 0.0338393 -0.0638157 3.69441e-05 4.05933e-06 -0.000549406 -0.020969 0.00571735 0.00482785 0.0364201 0.0254869 0.0382358 0.0015 2667 0.0745494 576.405 0.00109841 0 
83 1 0.0159494 0.00905831 -0.0722975 6.4161e-05 7.67406e-06 -0.00052842 -0.00942283 0.00118305 0.0230862 0.192866 0.0308648 0.154183 0.0015 2667 0.0740359 572.401 0.00109763 0 
84 1 0.00485033 0.012373 -0.064401 8.89602e-05 2.87132e-05 -0.000715343 0.0183571 0.00751341 -9.49036e-05 -0.0143067 -0.0241269 0.00903323 0.0015 2667 0.0645834 556.841 0.00117717 0 
85 1 0.00794813 0.0451061 -0.0725004 8.90519e-05 6.11037e-06 -0.000576523 -0.00984576 0.0285706 -0.00130059 0.0862896 0.0149272 0.0707225 0.0015 2667 0.0729348 567.447 0.00111977 0 
86 2 -0.0895352 0.0355775 -0.0753894 -3.5667e-06 6.88664e-06 -2.83093e-05 0.0437993 0.0318365 -0.0760869 -0.00511342 0.0362719 0.0125857 0.003 2521 0.117047 766.45 0.000293944 0 
87 1 -0.0427838 0.00230672 -0.0330293 0.000208867 2.69815e-05 -0.00083988 0.000696175 -0.00050514 0.00033923 0.00299953 0.000221296 -0.010535 0.0015 2667 0.0540498 575.084 0.00112035 0 
88 1 0.00296581 0.0432188 -0.0208913 0.000120962 -1.65246e-06 -0.00128734 0.00163065 -0.00352385 -0.00330009 -0.0149103 0.0149787 0.022343 0.0015 2667 0.0211008 576.315 0.00106659 0 
89 1 -0.00153532 0.0438495 -0.0428032 0.000115459 1.70646e-05 -0.00102243 0.0023632 0.000206291 0.00986202 -0.00725418 -0.00773804 -0.00895702 0.0015 2667 0.0428307 549.481 0.00121613 0 
90 1 -0.0513193 0.00336335 -0.017438 0.000403322 3.26638e-05 -0.000851822 -0.000917219 -0.00536097 -0.00173625 0.0224474 0.0408441 -0.00178211 0.0015 2667 0.054201 614.19 0.000916634 0 
91 2 0.00717533 0.00490389 -0.0730264 6.01076e-05 1.27238e-05 -0.000572446 0.0654181 -0.0380946 0.0149728 -0.000971304 -0.00137143 -0.00819065 0.003 2521 0.073378 571.327 0.00778647 0 
92 2 0.0134605 0.0452627 -0.0925943 3.89233e-05 7.35183e-07 -0.000319468 -0.075808 -0.0798609 0.055213 -0.0150428 -0.019949 0.0110981 0.003 2521 0.0935675 648.357 0.00481874 0 
93 1 -0.0583906 0.0156078 -0.0308821 0.00021505 2.08948e-05 -0.000616178 -0.000548348 0.000108177 -0.000231443 0.00493175 -0.00808111 0.00481232 0.0015 2667 0.0660542 603.95 0.000997907 0 
94 1 -0.0796839 0.0311857 -0.0303674 0.000193076 1.61341e-06 -0.000336381 -0.00339498 0.0102265 -0.000482855 0.0487392 0.00834302 -0.0094852 0.0015 2667 0.0852743 656.497 0.000736591 0 
95 2 0.0281444 0.0289019 -0.0173055 -2.4137e-06 2.68244e-07 -0.00112966 0.0163039 0.0304426 -0.0393129 -0.00254296 -0.0183619 -0.0051332 0.003 2521 0.0330392 600.511 0.00684325 0 
96 1 0.0336002 0.0388745 -0.03695 4.24075e-05 4.53309e-06 -0.000840652 -0.000668261 -0.00688173 -0.00857605 0.046552 -0.00682473 -0.0593728 0.0015 2667 0.0499427 571.331 0.00113981 0 
97 1 0.0428584 0.0452723 -0.0573755 8.01549e-05 1.36648e-05 -0.000502115 -0.020261 -0.0248707 -0.0237518 -0.0361222 -0.0103063 -0.0626639 0.0015 2667 0.0716156 583.955 0.0010773 0 
98 1 0.0273898 0.00886639 -0.039405 5.50697e-05 1.27466e-05 -0.00084076 -6.25778e-05 0.000146301 8.13647e-05 -0.00612709 0.00820749 -0.009708 0.0015 2667 0.0479891 563.014 0.00117147 0 
99 2 -0.0674383 0.0271165 -0.0956776 2.48832e-05 -4.70275e-05 -4.52859e-05 0.157082 -0.0120702 -0.0750811 -0.0275616 0.0371776 -0.0388045 0.003 2521 0.117056 765.259 0.000326781 0 
100 1 0.0279602 0.0429973 -0.043629 6.882e-05 1.17403e-05 -0.000827563 0.0202429 0.024198 0.0155871 0.0238896 -0.181385 -0.0247668 0.0015 2667 0.0518195 562.828 0.00117202 0 
101 2 -0.0800309 0.0411773 -0.0582173 1.55051e-05 7.59533e-09 -0.000192833 -0.0303457 -0.00278504 0.00147571 -0.00599159 -0.0061247 -0.00244546 0.003 2521 0.0989656 670.782 0.00446584 0 
102 1 0.0398133 0.0472271 -0.0303479 1.79689e-05 3.15961e-06 -0.00083114 -0.00491988 -0.00544993 -0.00285239 0.0535297 0.0702936 0.0212777 0.0015 2667 0.0500609 583.335 0.00108726 0 
103 2 -0.0945928 0.00642785 -0.00435797 0.000400385 1.39135e-05 -0.00028298 -7.41913e-05 0.00256944 0.000259027 -0.00376554 0.0260736 0.000644448 0.003 2521 0.0946932 737.711 0.00172552 0 
104 1 0.0142022 0.0340459 -0.0223537 5.53178e-05 1.16411e-05 -0.00119279 -0.00735197 -0.00459018 -0.000258151 -0.073345 -0.00836288 -0.0284812 0.0015 2667 0.0264838 577.656 0.00106961 0 
105 2 0.0571292 0.0204451 -0.086688 4.73073e-05 -2.30504e-05 -0.000149098 -0.00426452 0.00573262 -0.0116936 0.0222331 -0.00654388 -0.00490398 0.003 2521 0.10382 700.607 0.00297513 0 
106 1 0.0362613 0.0477123 -0.0407846 5.24603e-05 1.96153e-05 -0.000773755 -0.0345249 -0.00775966 0.0244071 0.0550579 0.11571 -0.0688317 0.0015 2667 0.0545735 569.748 0.00114992 0 
107 2 0.0471099 0.0192749 -0.0464522 6.82962e-05 9.53564e-06 -0.000585906 -0.0320084 -0.0181406 0.0247805 -0.005239 -0.00989684 -0.00042624 0.003 2521 0.06616 582.157 0.00781707 0 
108 1 -0.024381 0.0101434 -0.0601575 2.07477e-05 2.71425e-05 -0.000659985 0.0125996 0.00014743 4.53906e-05 -0.048893 -0.0525499 0.00805481 0.0015 2667 0.0649104 558.334 0.00117948 0 
109 1 0.0413478 0.0334488 -0.0597207 6.10932e-05 3.12293e-06 -0.000486043 -0.00112978 0.0115451 0.00603518 0.0816487 0.116906 -0.0106005 0.0015 2667 0.0726375 584.136 0.00107252 0 
110 1 -0.044542 0.0474295 -0.0268281 0.000269538 2.79204e-05 -0.000884604 -0.00116746 -0.000480566 0.0033713 0.047806 0.0226528 -0.00633005 0.0015 2667 0.0519975 585.953 0.00106235 0 
111 1 0.00388613 0.011251 -0.0135666 0.000117264 -3.76176e-06 -0.00133578 0.00160987 0.00041902 0.00339068 -0.00918411 -0.010092 -0.00248381 0.0015 2667 0.0141122 594.187 0.000968079 0 
112 2 -0.0649674 0.0328182 -0.0973243 1.86788e-05 -1.07182e-05 -3.1628e-05 -0.00927345 -0.0233086 -0.0328137 0.0165864 0.0132117 -0.00473108 0.003 2521 0.117016 766.397 0.000276781 0 
113 1 0.00536335 0.0366183 -0.02737 0.00010468 1.20856e-05 -0.00120823 -0.00360837 -0.010081 0.00291797 -0.00112153 -0.00613561 0.0144542 0.0015 2667 0.0278905 564.286 0.00113533 0 
114 1 -0.0351036 0.00341577 -0.0183971 0.000348803 3.6364e-05 -0.00110937 -0.00447478 0.00292811 0.00225517 0.0404963 0.0405166 0.0141532 0.0015 2667 0.0396322 592.136 0.00100609 0 
115 1 0.033586 0.0467909 -0.0541121 5.39266e-05 -1.3853e-05 -0.000636674 -0.0132361 -0.0675365 0.0532083 0.123779 0.132492 -0.0995042 0.0015 2667 0.0636878 570.433 0.00113786 0 
116 2 -0.0824954 0.0357622 -0.0588251 1.04541e-05 4.18293e-06 -0.000156641 -0.0360769 -0.0176426 -0.00677379 -0.00107737 0.0137951 0.00246196 0.003 2521 0.101321 681.224 0.00402719 0 
117 1 -0.02343 0.0284876 -0.0211699 0.000287503 2.53961e-05 -0.00125377 0.000448562 -0.0054066 -4.58627e-05 0.0268863 0.0248185 -0.00608926 0.0015 2667 0.0315773 579.402 0.00106031 0 
118 2 0.0751079 0.0455268 -0.0425269 2.11428e-05 1.08781e-05 -0.000279824 0.0156347 -0.0313569 0.00898891 0.015778 -0.0158477 0.0161075 0.003 2521 0.0863118 645.75 0.00566918 0 
119 1 0.0234451 0.0498475 -0.0304532 6.18251e-05 3.0468e-06 -0.00103125 0.00213519 -0.0418957 0.000337511 0.0328819 0.0851651 -0.00116094 0.0015 2667 0.0384327 568.39 0.0011349 0 
120 1 -0.0127123 0.0201905 -0.0226905 0.000218176 2.35371e-05 -0.00127546 -0.00857457 0.00412432 -0.00148762 0.0390146 0.0115522 0.0446964 0.0015 2667 0.0260089 570.324 0.0011004 0 
121 1 0.0148703 0.0369745 -0.0329193 6.64251e-05 7.24772e-06 -0.0010707 -0.0102958 -0.0161681 -0.0125928 0.0199253 0.0230739 0.0278427 0.0015 2667 0.0361221 560.359 0.00116636 0 
122 2 0.101839 0.0322714 -0.0575784 4.91556e-06 -7.5759e-06 -2.28807e-05 -0.00699981 -0.0231957 -0.0205359 0.000855697 0.00287567 -0.00359145 0.003 2521 0.11699 762.255 0.000507322 0 
123 2 -0.00753078 0.00950939 -0.0783314 3.69066e-05 8.56864e-06 -0.000514094 0.0387125 0.0415088 0.115681 0.0121001 0.0319912 0.0315901 0.003 2521 0.0786925 579.902 0.00744037 0 
124 2 0.0350538 0.0288699 -0.0758714 8.0143e-05 1.43774e-06 -0.000389924 0.0254314 -0.0504226 0.0019773 0.0130636 -0.01022 0.0167829 0.003 2521 0.0835777 608.194 0.00652896 0 
125 1 -0.0203335 0.0438952 -0.0516761 8.65472e-05 -4.87346e-06 -0.000833983 -0.00252315 -0.0101853 0.0161781 0.0154724 -0.0376763 -0.0875912 0.0015 2667 0.0555327 552.679 0.00120778 0 
126 1 0.0192531 0.0432985 -0.0177431 4.17066e-05 -4.9276e-06 -0.00119216 0.000159438 0.00498028 -0.000689786 0.0084208 0.000337177 0.00615143 0.0015 2667 0.0261821 590.623 0.00100492 0 
127 2 -0.0562133 0.0479461 0.00189606 0.000765998 4.22482e-05 -0.000845003 0.00574372 0.00613339 -0.000882324 -0.000305643 0.0186086 0.00221268 0.003 2521 0.0562453 711.361 -0.0339976 0.0366278 
128 1 0.0457161 0.0144116 -0.0364845 2.18423e-05 1.37946e-05 -0.000699637 -0.00113506 0.00590819 0.00577724 -0.0501699 0.0770309 0.00873962 0.0015 2667 0.05849 584.428 0.00109282 0 
129 1 0.0477722 0.0466189 -0.0304243 6.82319e-08 2.04499e-06 -0.000726957 0.00185198 -0.00551291 0.00110508 -0.0223908 -0.0470251 0.0167782 0.0015 2667 0.0566376 595.682 0.0010399 0 
130 2 0.0342287 0.0317192 -0.0386509 5.95172e-05 2.47152e-05 -0.000802053 0.0149791 0.00388158 0.00414052 0.00150099 -0.0161668 -0.00145171 0.003 2521 0.0516284 569.383 0.00815208 0 
131 1 -0.0295427 0.0276554 -0.0646436 4.32489e-05 1.82261e-05 -0.000567054 6.35441e-05 -0.00063581 0.00190663 -0.0238522 0.0145364 -0.0209469 0.0015 2667 0.0710743 568.797 0.00112668 0 
132 1 0.0491167 0.0268177 -0.0307924 -1.39034e-05 -2.30542e-05 -0.000673119 0.000926206 0.00164346 0.00744822 0.015889 0.000518012 -0.00387858 0.0015 2667 0.0579709 593.003 0.00105641 0 
133 2 -0.052578 0.0309105 -0.0651762 -2.23408e-06 -8.24464e-06 -0.00040155 0.0634004 -0.0360375 0.0259926 -0.00337258 0.017449 -0.011033 0.003 2521 0.08374 613.622 0.00649194 0 
134 1 -0.00108329 0.00336744 -0.0318884 0.000143657 3.32403e-05 -0.00117592 -9.87569e-05 -0.00499532 0.0150672 0.0048236 -0.0427185 -0.00558221 0.0015 2667 0.0319068 557.159 0.00117224 0 
135 2 -0.0572399 0.0368369 -0.0330525 0.000194157 2.41174e-05 -0.000645895 0.0265609 -0.0476588 0.0249686 -0.0047734 0.00196389 -0.00397088 0.003 2521 0.0660974 598.721 0.00724665 0 
136 1 -0.0378567 0.0256074 -0.0345259 0.000180451 2.69367e-05 -0.000916563 0.00117765 0.00189311 0.00952269 0.0278241 0.0148818 0.0180296 0.0015 2667 0.0512364 569.629 0.00113888 0 
137 2 -0.105842 0.0435171 -0.0396275 3.55501e-05 8.63193e-06 -5.70528e-05 -0.0520932 0.0782408 0.0546219 -0.0087356 0.0167292 -0.0097039 0.003 2521 0.113017 741.446 0.00149757 0 
138 2 0.0376512 0.0430084 0.00331724 -0.000368202 1.50128e-05 -0.00104269 0.00272641 0.00176666 -0.00260415 -0.0036901 -0.0362821 0.00968177 0.003 2521 0.0377971 697.298 -0.0418234 0.0449598 
139 1 -0.00978992 0.0473065 -0.0404227 0.000109886 3.45756e-05 -0.00105992 0.00301974 0.0038947 0.00131179 0.0122478 0.00730435 -0.000702888 0.0015 2667 0.0415913 551.245 0.00120702 0 
140 1 -0.0239052 0.0447472 -0.0259313 0.000227466 2.78714e-05 -0.0011622 0.00502892 0.00170815 -0.00686473 -0.0232186 -0.0316334 0.00256075 0.0015 2667 0.0352689 568.981 0.00111795 0 
141 1 -0.0485604 0.0151483 -0.0547406 1.53645e-05 1.45764e-05 -0.000552643 -0.0399082 0.0362784 0.00552459 0.02124 0.0481456 0.0048702 0.0015 2667 0.0731754 582.571 0.00108471 0 
142 1 -0.0151163 0.0237754 -0.0420664 0.000118719 1.20808e-05 -0.00100801 0.00857543 0.00730078 0.00179713 0.0156204 0.00362934 0.00305484 0.0015 2667 0.0446999 551.505 0.00120856 0 
143 1 -0.0430987 0.0135105 -0.0138236 0.00044096 3.68413e-05 -0.001032 -0.00128179 0.000630896 -0.000776863 0.00294906 0.019349 0.00142316 0.0015 2667 0.0452613 618.809 0.000875434 0 
144 1 -0.00891438 0.0443533 -0.0562605 9.28636e-05 -3.03283e-06 -0.000814842 -0.0149783 1.3506e-05 0.0157937 0.0231111 0.0220891 0.017313 0.0015 2667 0.0569623 551.268 0.00120747 0 
145 1 -0.0345237 0.00996506 -0.0275137 0.000264188 2.03273e-05 -0.000998428 -5.83979e-05 0.00155677 -0.0022356 0.00137136 -0.00865701 -0.00685502 0.0015 2667 0.0441463 572.702 0.00111535 0 
146 1 0.0368028 0.0309612 -0.0442832 5.5973e-05 1.88709e-05 -0.000716159 0.00393286 0.0112939 0.00555349 0.0131626 0.0551226 0.0799246 0.0015 2667 0.0575799 569.502 0.00115103 0 
147 2 0.1088 0.00721429 -0.00682427 -9.45207e-05 -8.0473e-06 -3.56299e-05 0.00859351 0.010087 0.00411695 -0.00303248 -0.00455448 0.00532812 0.003 2521 0.109014 754.697 0.000939426 0 
148 2 0.0869795 0.02015 -0.0411327 -5.12159e-07 -1.04436e-06 -0.000153508 0.00606975 -0.0101918 -0.000441724 -0.00141161 -0.011193 0.000836062 0.003 2521 0.0962151 680.936 0.00425888 0 
149 1 -0.0203337 0.00233539 -0.0268547 0.000202968 3.10126e-05 -0.00119058 0.0164526 -0.0115532 0.00257544 -0.0448299 0.0704313 -0.0310025 0.0015 2667 0.0336843 567.642 0.00112255 0 
150 1 0.0314647 0.00897584 -0.0626076 5.98967e-05 -5.51664e-06 -0.000510409 7.66031e-05 0.000100648 -5.19091e-05 -0.010975 0.0154032 0.0140776 0.0015 2667 0.0700696 577.387 0.00109251 0 
151 1 0.0050431 0.0181401 -0.0243166 0.000107188 1.44498e-05 -0.00123418 -0.000236061 -0.000418425 -0.000763736 -0.00471226 0.00711581 -0.00415799 0.0015 2667 0.024834 568.174 0.00111325 0 
152 1 0.0161035 0.0223641 -0.0453995 4.29527e-05 8.87554e-06 -0.000888694 0.000935641 -0.0010701 -0.00728335 -0.0286395 -0.0389874 0.00933541 0.0015 2667 0.048171 554.002 0.00120271 0 
153 1 -0.000404182 0.037297 -0.0318089 0.00011299 1.54451e-05 -0.00115124 0.000863964 -0.000439047 0.000983751 -0.0100026 0.0117408 -0.00489374 0.0015 2667 0.0318115 555.371 0.00118266 0 
154 1 -0.0487645 0.0173651 -0.0498962 7.44827e-05 1.09621e-05 -0.000599417 0.00717351 -0.0217785 -0.0142445 -0.0825775 -0.108714 0.0462431 0.0015 2667 0.0697683 578.67 0.00110742 0 
155 1 0.0361891 0.0374539 -0.0403079 6.78665e-05 2.97015e-05 -0.00074305 -0.00163376 -0.00061268 -0.00291794 -0.00290712 -0.0243277 -0.0187876 0.0015 2667 0.0541699 570.846 0.00114568 0 
156 1 0.0588562 0.0295615 -0.0222793 -7.90942e-05 -5.65169e-07 -0.000592621 0.000599623 -0.00209768 8.86179e-05 0.00620438 -0.00296664 0.0127805 0.0015 2667 0.0629319 624.698 0.000903931 0 
157 1 0.0492648 0.0210089 -0.0266572 -1.66969e-05 4.19447e-06 -0.000705781 -0.000261604 -0.00100142 -0.0023104 -0.0149703 -0.0021184 -0.00619171 0.0015 2667 0.0560145 600.06 0.00101835 0 
158 1 0.0213862 0.0191353 -0.0352503 6.56165e-05 1.9357e-05 -0.0009935 0.0154347 -0.0185325 -0.00234638 -0.0653928 0.0444805 -0.00469832 0.0015 2667 0.0412305 562.998 0.00116185 0 
159 1 -0.0164986 0.00828076 -0.0397068 0.000134375 8.49273e-06 -0.00102618 -0.00325325 0.00641344 -0.00287268 0.0140011 0.0214352 -0.0064078 0.0015 2667 0.042998 552.498 0.00120395 0 
160 1 0.00882672 0.0164607 -0.059719 6.40276e-05 1.3855e-05 -0.000735768 -0.0128474 -0.0255647 0.0132668 -0.0596993 0.0222032 0.163458 0.0015 2667 0.0603678 554.546 0.00119225 0 
161 2 -0.0088982 0.0150421 -0.107697 3.41478e-05 1.69749e-05 -0.000101396 -0.0338227 0.0571219 0.0282779 0.0164646 0.0243141 0.0230431 0.003 2521 0.108064 726.358 0.0018034 0 
162 2 -0.109508 0.0189492 -0.0200631 9.10244e-05 9.33196e-06 -6.49851e-05 -0.0323515 0.0354989 0.00632393 0.00398461 0.0212024 -1.4397e-06 0.003 2521 0.111331 746.814 0.00129617 0 