ITEM: TIMESTEP
600
ITEM: NUMBER OF ATOMS
15235
ITEM: BOX BOUNDS ff pp ff
-0.121 0.121
0 0.05
-0.121 0.121
ITEM: ATOMS id type x y z vx vy vz fx fy fz omegax omegay omegaz radius density v_radialPos f_Temp[0] f_heatFlux[0] f_heatSource[0] 
1 2 -0.0608176 0.0064736 -0.0987037 9.52026e-05 -6.64986e-06 0.000284891 -0.0632368 -0.0498494 -0.0247688 -0.0151732 0.0189742 0.00386332 0.003 2521 0.115936 686.582 0.018358 0 
2 1 -0.0615237 0.012108 -0.10128 -2.83895e-06 -1.09602e-05 1.5391e-05 0.000257526 -0.000511256 0.000885716 0.0202796 0.0105015 -0.000854235 0.0015 2667 0.118502 771.325 5.58202e-05 0 
3 1 -0.0648567 0.0149337 -0.0991983 1.80733e-05 -2.78773e-05 7.10575e-05 0.0350633 0.0224251 0.000357928 -0.115644 0.038462 0.0139838 0.0015 2667 0.118519 767.059 0.000185611 0 
4 1 -0.0623458 0.0149402 -0.100775 1.77904e-05 -2.29755e-05 9.37375e-05 -0.00173752 -0.0105608 -0.013143 0.0159508 -0.10055 -0.0118327 0.0015 2667 0.118501 766.521 0.000201519 0 
5 2 -0.0693298 0.00119435 -0.0942767 5.02326e-05 -1.18769e-05 0.000207791 0.028673 -0.0720631 0.0715482 -0.0107907 -0.0263528 0.0212972 0.003 2521 0.117024 723.684 0.0100577 0 
6 2 -0.0643989 0.0013994 -0.097698 2.80315e-05 -1.41447e-05 8.97707e-05 -0.00559554 0.0113954 0.0271612 -0.00660197 -0.015054 -0.0084711 0.003 2521 0.117013 727.649 0.0103961 0 
7 2 -0.068558 0.00708621 -0.0948454 2.63834e-05 -1.93325e-05 0.000146051 0.031288 -0.0721964 -0.0799685 -0.0110634 0.043438 -0.0213719 0.003 2521 0.117029 747.738 0.00541027 0 
8 1 -0.0648156 0.00578062 -0.0968689 6.86468e-05 -2.65154e-05 0.000208826 -0.0043091 -0.0083833 -0.00697711 0.0108864 -0.424229 0.0613057 0.0015 2667 0.116553 720.217 0.00164266 0 
9 2 -0.0647377 0.0108076 -0.0974931 3.55335e-05 -2.77983e-05 0.000180522 0.0306373 -0.0288122 0.0775929 0.0260595 -0.0667454 -0.00778475 0.003 2521 0.117029 737.78 0.00740664 0 
10 1 -0.0687774 0.0125017 -0.0964981 -7.14504e-06 -1.45357e-05 4.46459e-05 0.00122018 0.0023721 -0.000918094 -0.0119933 -0.0109712 -0.0246795 0.0015 2667 0.1185 765.915 0.000218061 0 
11 1 -0.0673177 0.014902 -0.0975376 4.81704e-05 -7.11887e-05 0.000108979 0.0198609 0.0135181 -0.00395609 0.131969 0.0809903 0.00718865 0.0015 2667 0.118513 763.483 0.000303425 0 
12 1 -0.0736726 0.00148255 -0.0928549 2.45931e-05 -4.28048e-06 0.000110081 -0.0103712 0.0251823 -0.012334 -0.125491 -0.0243738 0.263515 0.0015 2667 0.118531 760.009 0.000368755 0 
13 1 -0.0759332 0.00213743 -0.0910298 1.53672e-05 2.26508e-05 8.08076e-05 -0.0329858 0.0075372 -0.0143295 0.20101 -0.274566 -0.125079 0.0015 2667 0.118542 757.137 0.000448481 0 
14 2 -0.0643962 0.00360979 -0.0920196 8.24336e-05 -1.29062e-05 0.000413122 0.0167161 0.0680837 -0.030737 0.0154578 -0.0135097 -0.0211105 0.003 2521 0.112314 601.875 0.0352403 0 
15 1 -0.0621261 0.000214122 -0.0940021 -8.64061e-05 -3.29469e-05 0.000156024 0.000306376 0.000238607 8.96012e-05 -0.00302825 -0.0467253 -0.00131057 0.0015 2667 0.112677 687.835 0.00270934 0 
16 2 -0.0731557 0.00564386 -0.0913516 1.56032e-05 -3.51203e-06 0.000116785 0.0428375 0.0703959 0.0388482 0.0178881 -0.00409406 -0.0090933 0.003 2521 0.117034 749.815 0.00480531 0 
17 1 -0.0688159 0.00445239 -0.0912259 5.754e-05 -1.95804e-05 0.000253286 -0.000895111 0.0109508 0.00832276 -0.0557815 0.0346515 0.0231274 0.0015 2667 0.114271 696.751 0.00211159 0 
18 1 -0.0753308 0.0120369 -0.0915119 -3.94428e-05 1.40658e-05 0.000149901 -0.0306717 -0.00731024 0.0123441 -0.0368965 -0.189094 -0.0316018 0.0015 2667 0.118529 765.568 0.000231146 0 
19 2 -0.070943 0.0112403 -0.0913433 5.81445e-05 -2.19889e-05 0.000342446 0.0557836 0.0424116 -0.119544 0.0205449 -0.00579422 0.0279866 0.003 2521 0.115657 678.198 0.020453 0 
20 2 -0.062825 0.0114409 -0.0918891 7.6409e-05 -1.76565e-05 0.000433246 0.105143 0.0137167 0.145561 -0.0224182 -0.0179229 -0.0119304 0.003 2521 0.111313 608.018 0.0331055 0 
21 2 -0.0740296 0.0162641 -0.0905107 -1.98897e-06 -5.4882e-05 0.000235562 -0.0362922 -0.03067 0.0120913 -0.0419009 0.0164509 0.00520992 0.003 2521 0.11693 721.307 0.0127062 0 
22 2 -0.0688733 0.0163357 -0.0936088 2.21512e-05 -4.85739e-05 0.000204867 -0.0440803 -0.0121677 0.076607 -0.0465718 -0.0355561 0.00743927 0.003 2521 0.116216 696.126 0.017219 0 
23 1 -0.0667623 0.0133569 -0.0910666 4.99902e-05 1.86597e-05 0.000433771 0.00338174 -0.0228416 0.00095503 0.226879 0.328036 0.13474 0.0015 2667 0.112917 627.177 0.0042761 0 
24 1 -0.0777892 0.000426226 -0.0894415 4.90785e-05 2.18808e-05 0.000130052 0.025287 0.0455585 -0.0207916 -0.118699 -0.0534395 0.0777614 0.0015 2667 0.118537 754.7 0.000516818 0 
25 1 -0.0792666 0.00325575 -0.0880888 -4.90476e-06 1.01511e-05 4.82971e-05 -0.0122768 0.0140322 -0.00721293 -0.00833569 -0.00515982 -0.000665488 0.0015 2667 0.118502 768.813 0.000123022 0 
26 1 -0.0768021 0.00083805 -0.0866784 0.000100868 5.73959e-05 0.000244087 -0.0231872 0.0214615 0.0466559 0.124477 0.0591422 -0.0326603 0.0015 2667 0.115809 711.38 0.00168411 0 
27 1 -0.075348 0.00289631 -0.0882575 5.00562e-05 6.55773e-05 0.000149644 -0.0488903 -0.0184191 0.0137904 -0.070385 0.315852 -0.124154 0.0015 2667 0.116046 712.873 0.00167084 0 
28 1 -0.0724484 0.00291019 -0.087829 6.25674e-05 3.41284e-05 0.000331762 0.0283827 -0.0773213 -0.0787369 0.033424 -0.38198 -0.0356651 0.0015 2667 0.113854 665.401 0.002921 0 
29 2 -0.0684707 0.000993872 -0.0883941 8.15737e-05 -1.35687e-05 0.000453129 0.0736925 0.0642478 -0.0308916 0.00427519 0.0144766 0.00518451 0.003 2521 0.111811 620.672 0.0285317 0 
30 1 -0.0790946 0.00627475 -0.0882765 3.80196e-05 6.41452e-05 0.000119803 0.00190392 0.0089667 -0.00837356 -0.209723 -0.081885 0.125531 0.0015 2667 0.118527 760.162 0.000388155 0 
31 1 -0.0770126 0.00748251 -0.0900973 -3.81894e-06 7.12282e-06 5.65548e-05 -0.0125018 -0.00607092 -0.000411709 -0.0898999 -0.148623 0.157791 0.0015 2667 0.118526 767.517 0.000166472 0 
32 1 -0.0772555 0.00453217 -0.0898715 2.2402e-06 1.48023e-05 6.86273e-05 0.0381329 -0.0147403 0.0242044 0.0403365 0.0141188 -0.0734031 0.0015 2667 0.118513 761.25 0.000337022 0 
33 1 -0.0698999 0.00521605 -0.0883658 3.15182e-05 -1.6457e-05 0.000379802 0.011233 -0.020587 0.00328591 0.13625 -0.184745 -0.0625851 0.0015 2667 0.11267 635.224 0.00374375 0 
34 2 -0.0665604 0.00811431 -0.0887098 8.95488e-05 -7.22029e-06 0.000510488 -0.0500028 0.0595964 -0.00456733 -0.00306476 -0.00994501 0.00952831 0.003 2521 0.110904 589.628 0.0361016 0 
35 2 -0.0781699 0.0105292 -0.0870705 -8.4759e-06 -9.5789e-06 9.21978e-05 -0.0389587 0.00640352 -0.0141927 0.000881065 0.0068724 -0.00826632 0.003 2521 0.117012 757.409 0.00360631 0 
36 1 -0.0748254 0.00953402 -0.0898809 3.42587e-05 -7.76713e-06 0.000171205 0.00133618 -0.00353219 -0.000371669 0.0624527 -0.0500675 -0.0520547 0.0015 2667 0.11695 728.171 0.00138654 0 
37 1 -0.0742834 0.0122411 -0.0885187 1.41825e-05 -4.23005e-05 0.000267766 -0.00160728 -0.00364496 -0.00219975 0.0259978 -0.0515379 -0.0260706 0.0015 2667 0.115558 718.511 0.00177114 0 
38 1 -0.07794 0.0144464 -0.0892667 -3.77937e-05 -3.04759e-05 0.000141174 0.00118381 0.00123521 0.00767438 0.01555 -0.0815285 0.0131876 0.0015 2667 0.118504 763.041 0.000346865 0 
39 1 -0.0760017 0.0144583 -0.0869014 3.43035e-05 -2.59035e-05 0.000234923 0.00487241 0.00179742 -0.00282686 0.0685838 -0.00636141 -0.0266196 0.0015 2667 0.115447 734.929 0.0013707 0 
40 2 -0.0679313 0.0135949 -0.0867639 0.000138553 -5.23267e-05 0.000532072 0.035127 -0.0273954 -0.0514807 -0.00922434 -0.00705532 -0.0087098 0.003 2521 0.110194 580.227 0.0388545 0 
41 1 -0.0637723 0.0140862 -0.0883862 0.000120559 -4.30308e-05 0.000458603 0.00102926 0.0025145 0.00165555 0.0296559 -0.00423219 -0.00302146 0.0015 2667 0.108991 578.989 0.00550344 0 
42 1 -0.0617072 0.0154772 -0.0900562 0.000140933 -3.69664e-05 0.000455571 -0.000891196 0.00634289 0.00207119 -0.00809626 -0.013282 0.00134183 0.0015 2667 0.109169 564.602 0.00572121 0 
43 1 -0.0841772 0.0014888 -0.0834843 3.52904e-05 2.14838e-05 0.000177966 0.0284688 -0.00860934 0.0101364 -0.042981 -0.277089 0.111931 0.0015 2667 0.118556 757.62 0.000456941 0 
44 1 -0.081421 0.00262891 -0.086135 1.44979e-06 2.566e-05 7.17211e-05 0.00206461 0.0216506 -0.00690094 -0.0653272 0.0579731 0.0958053 0.0015 2667 0.118527 762.723 0.000294254 0 
45 1 -0.0814384 0.000120035 -0.0845779 2.93229e-05 4.16395e-05 0.000189713 0.0180475 -0.00615442 0.0425786 -0.0188309 0.0633131 -0.122204 0.0015 2667 0.117412 736.744 0.00101598 0 
46 1 -0.0785147 0.000510937 -0.0842764 6.96449e-05 4.40019e-05 0.000274758 0.0426971 -0.0689798 -0.00436487 0.00622549 -0.0950268 0.0460177 0.0015 2667 0.115183 701.959 0.00194581 0 
47 1 -0.0672218 0.0040567 -0.0833102 5.73788e-05 -5.06953e-05 0.000595384 0.0369808 -0.0148396 0.0173119 0.10177 0.240805 0.127819 0.0015 2667 0.107048 555.29 0.00551468 0 
48 2 -0.0636731 0.0036508 -0.0859852 9.39725e-05 -5.96852e-06 0.000678435 0.124434 0.0412613 0.0245458 0.0341312 -0.0332629 0.0071671 0.003 2521 0.106994 537.909 0.0421694 0 
49 1 -0.0816768 0.00801528 -0.0858567 -3.25833e-05 -3.2751e-06 3.65724e-05 0.00481275 -0.00595337 0.00255378 0.0357385 -0.0385131 0.00597394 0.0015 2667 0.118501 765.546 0.000231464 0 
50 1 -0.0815728 0.00525498 -0.0847254 3.95456e-05 1.57026e-05 4.60963e-05 -0.000745201 -0.00282255 -0.00800931 0.0149864 0.126909 -0.00679439 0.0015 2667 0.117612 758.892 0.000417458 0 
51 1 -0.083193 0.00751935 -0.0833293 3.96371e-05 -2.0956e-05 7.93572e-05 -0.00126439 0.00148286 -0.00262676 -0.0189626 0.0575598 -0.0211648 0.0015 2667 0.117749 756.972 0.000485061 0 
52 1 -0.0840867 0.00465987 -0.083223 0.000101453 -5.12381e-05 0.000197911 -0.0155963 0.00364164 -0.0103676 -0.0645917 -0.0190824 -0.00927294 0.0015 2667 0.118307 746.854 0.000761338 0 
53 2 -0.0766688 0.00519573 -0.0846869 7.60858e-05 2.78489e-05 0.000284417 0.129144 0.031423 0.147764 0.0412356 -0.022342 -0.00424015 0.003 2521 0.114236 657.673 0.0245013 0 
54 1 -0.0708651 0.00427218 -0.0857447 1.75797e-05 -2.19883e-05 0.000496924 -0.0985644 -0.0393293 0.0128089 -0.0657127 0.18509 -0.0381195 0.0015 2667 0.111239 620.808 0.00408639 0 
55 1 -0.0679843 0.00479759 -0.0860797 6.14175e-05 8.00213e-06 0.000510192 -0.0425817 -0.0274046 -0.064657 0.00517765 -0.185008 0.0346461 0.0015 2667 0.109689 589.025 0.00483195 0 
56 1 -0.0629221 0.00756191 -0.0840248 9.08107e-05 1.77724e-05 0.000773766 -0.0604259 -0.00427567 0.00621554 -0.21585 -0.205429 0.00857992 0.0015 2667 0.104973 483.337 0.0066259 0 
57 2 -0.0823916 0.0119543 -0.0830934 5.74588e-05 -9.29805e-06 0.000146718 -0.0231017 0.0617275 -0.0202942 -0.000285727 -0.0082748 0.00269343 0.003 2521 0.117017 729.573 0.00910171 0 
58 2 -0.0720175 0.00859492 -0.0861346 0.000113682 -2.35654e-05 0.000431621 -0.0379535 -0.0215514 -0.1188 -0.0238459 0.00738072 -0.0169659 0.003 2521 0.112275 606.198 0.0344505 0 
59 1 -0.0679275 0.00962002 -0.0846955 0.000110895 -7.96917e-05 0.000605617 0.0342015 0.00527006 0.00582212 -0.00500066 -0.24574 -0.10105 0.0015 2667 0.10857 557.825 0.00572611 0 
60 1 -0.0648797 0.00961765 -0.0848819 9.67677e-05 3.37236e-05 0.000673991 0.0277257 0.0292251 0.00595101 0.396114 -0.0673497 -0.086528 0.0015 2667 0.106838 499.747 0.00651452 0 
61 1 -0.084431 0.0159237 -0.083197 2.62022e-05 -1.24974e-05 0.000103211 -0.00270266 0.0130677 -0.0189506 -0.0807046 -0.132658 0.0252145 0.0015 2667 0.118534 761.664 0.000343076 0 
62 1 -0.0814961 0.015137 -0.0860984 8.77937e-06 3.79987e-05 0.000133717 -0.0108422 0.0239333 -0.00178171 -0.243982 -0.248156 0.171051 0.0015 2667 0.118552 760.054 0.000398732 0 
63 1 -0.0810857 0.0162654 -0.0830976 8.87531e-05 -5.40186e-05 0.000292556 -0.0106665 -0.0781674 -0.0270843 -0.109477 -0.12515 0.0985042 0.0015 2667 0.116104 717.128 0.00163848 0 
64 1 -0.0789139 0.0143518 -0.0849283 6.41302e-05 2.75602e-06 0.000279368 -0.00579807 0.0744317 0.0253728 0.153188 0.122385 -0.0967037 0.0015 2667 0.115932 731.038 0.00128879 0 
65 1 -0.0719539 0.0129045 -0.0849237 0.000126449 -5.53832e-05 0.000472784 -0.0108486 -0.0134519 0.00176682 0.14072 -0.0467279 0.136752 0.0015 2667 0.111308 583.751 0.00567536 0 
66 2 -0.0636227 0.0131699 -0.0824954 0.000196997 -2.70642e-05 0.000792354 0.00588497 -0.0350811 0.0455078 0.0406229 0.0115916 -0.00274127 0.003 2521 0.104179 468.718 0.0519164 0 
67 1 -0.0849847 0.00170983 -0.0806463 3.75488e-05 4.55388e-06 0.000211842 -0.0347349 0.0135375 0.0118433 -0.0524011 0.00179412 0.00450747 0.0015 2667 0.117159 741.507 0.000936613 0 
68 1 -0.0876969 0.00243101 -0.0797158 1.76935e-05 -7.21187e-06 0.000134804 -0.00591537 0.01074 0.00287672 0.189405 0.0208431 0.0194663 0.0015 2667 0.118513 755.333 0.000538009 0 
69 2 -0.0806621 0.00274491 -0.0810608 9.72248e-05 -2.60012e-07 0.000288919 0.0777261 -0.00111035 -0.0789319 -0.00675311 0.0373777 -0.0127323 0.003 2521 0.114356 678.543 0.0189843 0 
70 1 -0.0764318 0.00133949 -0.0823324 8.08755e-05 1.9554e-05 0.000429451 0.0103239 0.0180077 0.0226505 0.0209123 0.0295528 -0.0273585 0.0015 2667 0.112341 644.938 0.00340539 0 
71 1 -0.075543 0.00263053 -0.0797982 0.000130498 -5.19316e-05 0.00059426 -0.00931002 -0.00205935 0.00598745 0.0330987 -0.0878005 0.0129553 0.0015 2667 0.109884 605.902 0.00430079 0 
72 1 -0.0740785 6.17071e-05 -0.0802939 9.00881e-05 -4.09021e-05 0.00046562 0.000699433 0.000561631 0.000131829 0.0273839 0.0536592 -0.0158898 0.0015 2667 0.109246 605.735 0.00446716 0 
73 1 -0.0705412 0.000139596 -0.0795521 7.72509e-05 -3.73118e-05 0.000620735 0.00058159 0.00381311 0.0046774 -0.0245695 -0.0142429 0.0423914 0.0015 2667 0.106323 530.194 0.0059821 0 
74 1 -0.0609685 0.00402708 -0.0824143 7.99393e-05 -1.84782e-05 0.000798351 0.00327899 0.00216289 0.00224767 -0.0416065 0.0155885 0.035442 0.0015 2667 0.102515 486.49 0.00667147 0 
75 1 -0.0638637 0.00394921 -0.0815165 9.84077e-05 -4.52991e-05 0.000754283 0.00614031 -0.0105291 0.00309562 -0.000782625 0.0508287 -0.0282528 0.0015 2667 0.103554 489.676 0.00641343 0 
76 1 -0.0861887 0.00561696 -0.081348 -2.13827e-05 -5.47123e-05 7.02102e-05 0.00996124 -0.0141739 0.0324596 0.100306 -0.0769147 -0.0358911 0.0015 2667 0.118516 764.742 0.000247238 0 
77 1 -0.0874704 0.00793624 -0.0799859 2.73235e-05 -2.95485e-05 9.11919e-05 0.0239305 0.0124499 0.0047688 0.00535945 -0.267914 -0.19496 0.0015 2667 0.118528 759.891 0.00039851 0 
78 1 -0.0772291 0.00507624 -0.0794048 0.000178695 -4.73867e-05 0.000528994 -0.0126074 0.0317437 -0.0109954 0.0360629 -0.158598 -0.0122722 0.0015 2667 0.110768 598.222 0.00441921 0 
79 2 -0.071213 0.0042048 -0.0813279 0.000122192 -5.06785e-05 0.000642274 0.117904 0.0715447 0.035522 0.021944 -0.0438934 -0.0114477 0.003 2521 0.1081 546.287 0.0403798 0 
80 1 -0.0701844 0.00809638 -0.0790376 7.74959e-05 -6.87911e-05 0.00075318 -0.00239678 -0.00351174 -0.0020688 -0.00768176 -0.0462916 -0.0295755 0.0015 2667 0.105701 498.319 0.00649737 0 
81 2 -0.0661815 0.00777303 -0.081036 9.21347e-05 -2.48789e-05 0.000778435 0.00662912 -0.0602726 -0.0289366 -0.00482416 -0.013939 0.0264363 0.003 2521 0.104627 491.731 0.0462066 0 
82 1 -0.0854569 0.0088973 -0.0819471 6.07417e-05 -2.79593e-05 0.000106839 0.020764 -0.018021 -0.00509045 0.045713 -0.00115526 0.0867587 0.0015 2667 0.118398 754.69 0.000552508 0 
83 1 -0.0867355 0.011329 -0.0807847 5.15719e-05 -2.44272e-05 9.04907e-05 0.0107832 -0.0273083 -0.018646 0.0710979 0.0791279 -0.0742656 0.0015 2667 0.118529 759.452 0.000405551 0 
84 1 -0.0839147 0.0124412 -0.0789229 8.25999e-05 -2.54533e-05 0.000184656 0.0233241 -0.00801965 -7.09405e-06 0.0164295 0.0652994 -0.0020364 0.0015 2667 0.115198 713.214 0.00184367 0 
85 1 -0.0786221 0.0114151 -0.0807603 2.68197e-05 -4.25918e-05 0.0003221 -0.00932125 0.0171117 0.00837341 -0.0372779 -0.262764 -0.00278995 0.0015 2667 0.11271 634.495 0.00397896 0 
86 2 -0.0747157 0.00925176 -0.0807643 6.33889e-05 -4.95881e-05 0.000519179 -0.0234482 0.00727179 -0.00778994 0.0185723 -0.0224683 -0.0101307 0.003 2521 0.110024 578.098 0.0385177 0 
87 1 -0.0704393 0.0087451 -0.0819513 0.000108417 -6.43135e-05 0.000653851 -0.0192515 -0.0066324 0.010179 0.0192663 -0.135563 -0.137267 0.0015 2667 0.108063 531.961 0.00609856 0 
88 1 -0.0613347 0.00902554 -0.0820146 0.000215462 -1.86513e-05 0.000945501 -0.0260395 0.0751939 -0.00305422 0.105935 0.120097 -0.0941749 0.0015 2667 0.102413 458.433 0.00670292 0 
89 1 -0.0860888 0.0141691 -0.0814369 8.43366e-06 2.02446e-06 6.84452e-05 0.00392679 0.00797131 0.00490836 -0.0123573 -0.00142908 0.0258218 0.0015 2667 0.118504 767.801 0.000159827 0 
90 1 -0.0806523 0.0130077 -0.079093 7.26541e-05 -0.000105266 0.000283482 -0.00197282 -0.00176993 -0.000186486 0.035723 -0.0214777 -0.0175387 0.0015 2667 0.112962 651.455 0.00344424 0 
91 2 -0.0771609 0.0156555 -0.0810784 0.000109727 -6.82511e-05 0.0004742 -0.0830271 0.031737 -0.016619 0.0157257 -0.0186101 0.00216294 0.003 2521 0.111926 598.168 0.0354412 0 
92 2 -0.0694307 0.0130079 -0.0810383 0.000206749 -7.23317e-05 0.00073908 -0.0735352 0.0608405 -0.0318599 -0.0137896 0.0213921 -0.00305675 0.003 2521 0.106714 490.118 0.0486837 0 
93 1 -0.0893699 0.000847312 -0.0778191 1.28388e-05 1.41696e-05 0.000131818 0.00130513 -0.0143268 -0.00456091 -0.0639374 0.00304553 -0.0213151 0.0015 2667 0.118502 756.745 0.000492931 0 
94 1 -0.0911165 0.00215909 -0.0757863 4.65105e-06 1.11056e-05 0.000109635 0.023361 0.0141816 -0.0038926 0.0420258 -0.000552865 -0.0201525 0.0015 2667 0.118515 758.771 0.000456353 0 
95 2 -0.0822959 0.00152771 -0.0755066 0.00013726 -7.71969e-06 0.000433231 -0.0530737 0.00951366 -0.0132657 0.00137446 -0.0340078 -0.0252192 0.003 2521 0.111686 585.184 0.0356499 0 
96 1 -0.0775287 0.000815103 -0.0784759 -4.07399e-05 -1.09063e-05 0.000398763 0.000560752 0.000292113 -0.000693194 -0.0148551 -0.140807 -0.0159245 0.0015 2667 0.110314 631.022 0.00386808 0 
97 1 -0.0780915 0.00285863 -0.0762593 0.000173825 -6.42686e-05 0.000628102 0.00703853 -0.014238 0.0221833 -0.108222 -0.122577 0.0169024 0.0015 2667 0.10915 558.806 0.00545634 0 
98 1 -0.0705924 0.00220327 -0.0773728 0.000177802 -6.66317e-05 0.00078196 -0.0155145 -0.00359439 0.00405707 -0.159685 -0.0214272 0.0543274 0.0015 2667 0.104737 474.032 0.00636695 0 
99 2 -0.0661568 0.00271491 -0.0778677 0.00018811 -4.89254e-05 0.000897227 -0.076801 0.0237411 -0.0232233 -0.0270545 0.00392689 0.00133161 0.003 2521 0.102177 444.392 0.0459794 0 
100 1 -0.0618377 0.00146304 -0.0772352 0.000239645 -9.5764e-05 0.00107241 0.0239023 -0.022419 0.0399882 0.22829 0.183159 -0.0629458 0.0015 2667 0.0989402 422.191 0.00641443 0 
101 2 -0.0880109 0.00537232 -0.0763881 5.97781e-05 -2.28089e-05 0.000229805 0.0419564 -0.0785048 0.0488721 -0.0145122 -0.00604261 0.00217505 0.003 2521 0.116538 687.049 0.0187937 0 
102 1 -0.083653 0.00580868 -0.0755443 0.000100404 1.07902e-05 0.000340547 0.0252197 0.00700848 0.00720262 -0.0699087 -0.0127044 0.0790553 0.0015 2667 0.112715 613.401 0.00439146 0 
103 2 -0.0814294 0.00812613 -0.0786365 0.000113271 8.40246e-07 0.000337068 -0.0635148 -0.0296706 -0.0644503 -0.00656771 -0.00669108 0.0271365 0.003 2521 0.113201 644.228 0.0253619 0 
104 1 -0.0787678 0.00575392 -0.0758992 9.70031e-05 -1.82091e-05 0.000446849 0.00157979 -0.000625843 0.00197866 0.0297711 -0.0645971 0.00738694 0.0015 2667 0.109385 580.323 0.00503341 0 
105 2 -0.074111 0.00490039 -0.0762091 0.000154873 -6.37042e-05 0.000741377 -0.15985 -0.101346 -0.093689 -0.00241427 0.048925 0.00155505 0.003 2521 0.106303 513.989 0.042822 0 
106 1 -0.0696647 0.00462354 -0.0758651 0.00015016 -5.44168e-05 0.000834168 -0.00498938 0.026464 -0.00541758 -0.00708622 -0.163582 0.0286731 0.0015 2667 0.102998 464.151 0.00644523 0 
107 2 -0.0667872 0.00799841 -0.0751467 0.000182039 -5.34151e-05 0.000943112 -0.0307232 0.0109878 0.099867 0.0100971 0.0420561 -0.00268334 0.003 2521 0.100536 430.203 0.0469483 0 
108 1 -0.0625655 0.00531063 -0.0773927 0.00021496 -7.45931e-05 0.00101821 -0.0249001 0.023426 -0.00412626 0.0464866 -0.212739 -0.158656 0.0015 2667 0.0995192 409.521 0.0064835 0 
109 1 -0.0890857 0.00964095 -0.0781419 2.49068e-05 -4.46457e-05 0.000106518 0.00187472 -0.00674914 -6.19261e-05 0.0891315 -0.0306989 -0.00240112 0.0015 2667 0.118501 759.247 0.000424951 0 
110 1 -0.085596 0.00975723 -0.0785297 3.55734e-05 -2.09992e-05 0.000139439 -0.0174361 -0.0216084 0.0169816 -0.0553664 -0.0950239 -0.00998148 0.0015 2667 0.116162 734.251 0.00111031 0 
111 1 -0.0807946 0.0120304 -0.0762668 0.000110068 -1.97805e-05 0.000425468 0.00277311 0.0133466 -0.00304759 -0.141934 0.0445307 -0.0302269 0.0015 2667 0.111105 613.736 0.00441851 0 
112 2 -0.0771606 0.0098214 -0.0748606 0.00010245 -1.89791e-05 0.000617218 0.0469273 0.0181976 -0.0260532 0.0078008 -0.039347 -0.013238 0.003 2521 0.107507 543.333 0.0408314 0 
113 1 -0.0722675 0.00889819 -0.0770535 6.86316e-05 -5.72971e-05 0.000712208 0.0206884 0.0163962 0.00997018 -0.131435 -0.0459025 0.0537696 0.0015 2667 0.10564 497.106 0.00643336 0 
114 1 -0.0697781 0.0105187 -0.0773226 0.000140507 -4.21622e-05 0.000801974 0.000363694 0.017544 -0.00224327 -0.0405331 -0.122639 -0.0735368 0.0015 2667 0.104153 478.424 0.00666753 0 
115 1 -0.0697343 0.0122739 -0.0748918 0.000112846 -3.78483e-05 0.000823788 0.00218868 0.00269338 0.00343457 0.0304588 0.00898027 -0.00683779 0.0015 2667 0.102331 462.563 0.0068579 0 
116 2 -0.0616151 0.00966605 -0.0776074 0.000209439 -5.24404e-05 0.00107049 -0.0198157 -0.0158343 0.0397908 0.00843009 -0.0258646 0.01534 0.003 2521 0.0990925 403.835 0.0466331 0 
117 1 -0.0916939 0.014258 -0.0751272 -3.03142e-05 -1.99557e-05 0.000107662 -0.0481391 -0.0139061 0.0543405 0.00207224 -0.153052 0.0156398 0.0015 2667 0.118541 766.191 0.000213182 0 
118 2 -0.0878156 0.0138506 -0.077265 7.71906e-05 -3.9524e-05 0.000238537 0.103267 0.0562182 0.0341572 -0.00979709 0.00399011 0.00903951 0.003 2521 0.116968 698.269 0.016178 0 
119 1 -0.0832877 0.0136348 -0.0759814 7.48534e-05 -2.56096e-05 0.000330659 -0.00325113 0.00538358 0.0190909 -0.0499525 0.0470398 0.0967512 0.0015 2667 0.112739 628.265 0.0041859 0 
120 1 -0.0781942 0.0133265 -0.0774172 7.10367e-05 -5.91263e-05 0.000489974 -0.0105463 0.00303731 0.0103783 -0.142755 0.0931129 0.184294 0.0015 2667 0.110035 600.429 0.00472375 0 
121 1 -0.0789766 0.016667 -0.0771432 0.000119061 -3.79506e-05 0.000462581 0.0754249 -0.0163906 -0.0160063 -0.0509066 0.180336 0.0426468 0.0015 2667 0.110401 572.898 0.0054214 0 
122 2 -0.073415 0.0140551 -0.0767422 0.000151947 -3.29757e-05 0.000710984 -0.0127186 -0.0686454 0.0392105 -0.0128929 -0.0191666 0.0311707 0.003 2521 0.106203 494.074 0.0472263 0 
123 2 -0.0657712 0.0137506 -0.0763943 0.000198884 -5.07181e-05 0.000948428 0.088392 -0.00479473 0.0145984 -0.00763617 -0.0378177 -0.024001 0.003 2521 0.100806 422.92 0.0490863 0 
124 2 -0.0915131 0.000930182 -0.0715033 3.33548e-05 2.7017e-05 0.000239344 0.0292941 0.0361751 0.0356319 -0.00284596 -0.00824804 0.0132696 0.003 2521 0.116135 668.796 0.0237452 0 
125 1 -0.0881006 0.00141628 -0.074309 6.26237e-05 9.38937e-06 0.000286143 -0.00741943 -0.00654071 -0.00726883 -0.105409 0.0974719 -0.203154 0.0015 2667 0.115254 643.767 0.00381379 0 
126 1 -0.0858584 0.00302831 -0.0732629 7.89546e-05 1.61071e-05 0.000345923 0.0213592 -0.0130189 0.00588231 -0.0765422 -0.104665 0.0808484 0.0015 2667 0.112868 613.73 0.00454359 0 
127 2 -0.0742221 0.00195285 -0.0710399 0.000153045 -4.12711e-05 0.000830109 0.0769099 -0.00213783 0.0316404 -0.0152647 -0.0281564 -0.0323217 0.003 2521 0.10274 454.139 0.0473833 0 
128 1 -0.0672583 0.00380946 -0.0736762 0.000229158 -8.402e-05 0.00096348 0.036196 0.0371344 -0.00287343 0.0569323 0.066206 0.0744465 0.0015 2667 0.099759 416.061 0.00635242 0 
129 1 -0.0663847 0.00212303 -0.0714227 0.000221804 -7.67714e-05 0.00108637 0.0108414 -0.0105484 0.0115859 0.0242449 -0.184301 -0.079301 0.0015 2667 0.0975096 405.87 0.00619097 0 
130 2 -0.0624434 0.0032785 -0.0732153 0.000257754 -7.91422e-05 0.00120381 0.0839295 -0.00619491 0.0404836 -0.0188588 -0.0152006 -0.0267088 0.003 2521 0.0962271 383.425 0.0417829 0 
131 1 -0.0920673 0.00476066 -0.0746574 -3.45094e-05 -2.34589e-05 0.000117266 -0.0447956 0.00674805 0.0305432 0.00719744 -0.148822 -0.0134846 0.0015 2667 0.118533 763.901 0.000287427 0 
132 1 -0.0837595 0.00503921 -0.0726735 0.00010799 4.14232e-05 0.000458056 -0.00965077 0.0157091 0.0115995 0.0241772 0.0345245 -0.0446252 0.0015 2667 0.110892 582.406 0.00509823 0 
133 2 -0.0795645 0.00456104 -0.0711978 0.000141466 -1.18219e-05 0.000667155 0.056068 0.10483 -0.0136299 -0.00208504 -0.0403518 0.0224502 0.003 2521 0.106769 498.377 0.0460072 0 
134 1 -0.0756714 0.00642775 -0.0723011 0.000169419 -4.01484e-05 0.000777667 0.00442307 0.022188 -0.0129193 -0.0512368 0.101217 -0.149876 0.0015 2667 0.104659 482.905 0.00646355 0 
135 2 -0.0713569 0.0071906 -0.0714642 0.000171275 -4.31121e-05 0.000927113 -0.00436592 -0.0220227 -0.170054 -0.00663927 -0.0721343 0.00207035 0.003 2521 0.10099 441.549 0.0466075 0 
136 1 -0.0611236 0.00749487 -0.0724853 0.000213392 -6.79964e-05 0.00129792 0.0101035 0.0218545 0.00586637 0.0390759 -0.0344848 0.104264 0.0015 2667 0.0948167 363.371 0.00542255 0 
137 2 -0.0907478 0.00993677 -0.0737373 8.66006e-05 9.33465e-07 0.00023876 -0.0785814 0.0300328 -0.0249415 0.0151343 -0.0121108 -0.00686944 0.003 2521 0.116929 675.658 0.0227663 0 
138 2 -0.0847817 0.00994682 -0.0739295 0.000110256 -2.18519e-05 0.000408789 0.0193231 -0.076536 -0.0312378 -0.0034064 -0.0345083 -0.0120283 0.003 2521 0.112488 607.629 0.0350112 0 
139 1 -0.080764 0.00868777 -0.0724586 9.78085e-05 1.86185e-05 0.000544514 0.0197335 0.00629071 0.00275137 -0.0254021 0.0780343 0.177007 0.0015 2667 0.108504 548.478 0.0058324 0 
140 1 -0.0770918 0.0123838 -0.0712245 0.000104614 -3.229e-05 0.000716578 -0.00226549 -0.00937942 0.00543196 0.0901862 0.172664 -0.107676 0.0015 2667 0.104958 479.552 0.00657015 0 
141 1 -0.0800168 0.011265 -0.0711091 0.000126466 -1.05006e-05 0.000629936 0.00180657 -0.0235725 -0.0126658 -0.110699 -0.049709 -0.0710162 0.0015 2667 0.107048 497.284 0.00669002 0 
142 1 -0.0723324 0.0103536 -0.0744743 0.000152777 -3.53651e-05 0.00081595 -0.0151692 0.0260256 -0.0131252 0.128834 0.0812141 -0.0180902 0.0015 2667 0.103819 477.087 0.00661704 0 
143 1 -0.0630712 0.00959539 -0.073298 0.000190328 -6.34354e-05 0.00118827 -0.00491612 0.0447944 -0.041835 0.0623939 -0.217761 0.0230868 0.0015 2667 0.0966983 372.503 0.00564316 0 
144 1 -0.0939774 0.0126124 -0.072236 2.89392e-05 1.23933e-05 0.000116217 -0.0236463 0.0101824 0.00266798 -0.0420653 -0.102292 0.0669444 0.0015 2667 0.118532 756.147 0.000546815 0 
145 1 -0.0946846 0.0153303 -0.0712587 2.54897e-05 1.68845e-07 6.76864e-05 -0.0264817 -0.00591157 0.0122705 0.0439241 -0.0128567 -0.020039 0.0015 2667 0.118503 763.948 0.000289006 0 
146 1 -0.0923103 0.0161835 -0.0729139 -3.46775e-05 -5.56641e-06 5.06634e-05 -0.000318555 -6.1101e-05 -2.34276e-05 -0.0180504 0.0419723 -0.0147911 0.0015 2667 0.117633 766.955 0.000193289 0 
147 2 -0.0859814 0.0156429 -0.0718944 8.97529e-05 -1.86477e-05 0.000383351 -0.0643392 0.0300843 0.070239 0.00463335 -0.0438112 0.00771529 0.003 2521 0.112079 598.636 0.0350729 0 
148 2 -0.0801585 0.0152665 -0.0730935 0.000139482 -3.35612e-05 0.000562416 0.0957198 -0.000173328 -0.0769774 0.00597285 -0.00982681 -0.008727 0.003 2521 0.108481 522.765 0.0457435 0 
149 1 -0.0756845 0.0157124 -0.0732311 0.000102029 1.64753e-06 0.000635435 -0.000127823 -0.000391806 9.74155e-05 -0.0153822 -0.0120818 0.0147271 0.0015 2667 0.105313 515.144 0.006566 0 
150 1 -0.0656417 0.0163999 -0.0727612 0.000152274 -8.44833e-05 0.000959446 -0.000164524 -0.000137841 0.00106723 0.0324631 -0.0492122 -0.0134504 0.0015 2667 0.097995 420.025 0.00710741 0 
151 1 -0.0622254 0.0144947 -0.0737655 0.000159595 -1.55027e-05 0.00116622 -0.00360982 -0.006192 0.00957577 -0.0182572 -0.0595663 0.0979783 0.0015 2667 0.0965057 382.115 0.00609591 0 
152 1 -0.0971991 0.00210677 -0.0677191 -3.42523e-05 7.98551e-05 0.000120209 -0.0344372 -0.01299 -0.00249021 -0.08717 0.158464 -0.0435095 0.0015 2667 0.118463 751.484 0.000700615 0 
153 1 -0.0955474 0.00224629 -0.0701564 -2.46747e-05 3.20581e-05 0.000115494 0.0082816 -0.0389414 0.00288061 0.0440519 -0.227179 0.0153151 0.0015 2667 0.118538 755.785 0.000572045 0 
154 1 -0.0934437 0.00239381 -0.0677485 4.1064e-05 4.94484e-05 0.000241755 0.0111698 -0.00309845 -0.0112967 -0.0109801 0.110535 -0.032392 0.0015 2667 0.115419 671.852 0.00318286 0 
155 1 -0.0903912 0.00347712 -0.0679734 -1.83283e-05 4.24727e-05 0.000298289 0.000476296 -0.000345134 0.00129496 0.024697 -0.0395637 -0.0269162 0.0015 2667 0.113097 618.753 0.00490745 0 
156 1 -0.0862747 0.00262355 -0.067773 6.18714e-05 3.06865e-05 0.000383168 0.00114095 0.0142595 -0.00174423 -0.0657247 0.0330516 0.0416782 0.0015 2667 0.109711 581.822 0.00569813 0 
157 1 -0.0815635 0.00134864 -0.0688368 6.22467e-05 -1.72692e-05 0.000587909 -0.00875364 -0.0233041 0.00188685 0.0637668 -0.114914 -0.0608643 0.0015 2667 0.106729 499.038 0.00646841 0 
158 1 -0.0705486 0.00353767 -0.0689813 0.000141515 -5.07293e-05 0.00101872 -0.00211519 -0.00447948 0.00617627 -0.00747787 -0.0286916 0.0116995 0.0015 2667 0.0986688 420.155 0.00642783 0 
159 1 -0.068628 0.00134768 -0.0696488 0.000179064 -7.01544e-05 0.00105038 -0.0293482 0.0279825 -0.0279358 -0.0462137 0.127905 0.0284242 0.0015 2667 0.0977791 404.569 0.00620705 0 
160 1 -0.0674029 0.00267482 -0.0672874 0.000163181 -5.27447e-05 0.00118874 0.0264733 0.00173057 -0.00560172 0.0590703 -0.0721539 0.0263388 0.0015 2667 0.0952405 381.864 0.00578292 0 
161 2 -0.0638403 0.000159043 -0.0683423 0.000216255 -3.7227e-05 0.00134425 -0.080368 -0.0266205 0.00616651 0.0196439 -0.00777115 0.0244389 0.003 2521 0.0935214 361.055 0.0374412 0 
162 2 -0.0936833 0.00630431 -0.0699846 1.08623e-05 1.6917e-05 0.000191096 0.00344297 -0.0122832 0.0302771 0.00677112 -0.0191027 -0.0127253 0.003 2521 0.116938 694.875 0.0190646 0 
163 2 -0.0875791 0.00600582 -0.0704068 5.3055e-05 3.39867e-05 0.000384794 -0.0166347 -0.001249 -0.0347537 0.00773341 -0.00224412 -0.0115984 0.003 2521 0.112371 591.514 0.0405551 0 
164 1 -0.0831576 0.00719135 -0.0706982 0.000116436 1.48117e-05 0.00054647 -0.00241003 0.00661695 0.00333979 -0.0397129 0.0161899 -0.0696639 0.0015 2667 0.109149 542.696 0.0059373 0 