ITEM: TIMESTEP
28000
ITEM: NUMBER OF ATOMS
2875
ITEM: BOX BOUNDS ff ff ff
-0.001 0.051
-0.001 0.027
-0.002 0.034
ITEM: ATOMS id type x y z vx vy vz fx fy fz omegax omegay omegaz radius density f_Temp[0] f_heatFlux[0] 
1 1 0.000989848 0.00207734 0.000999982 0.000263256 -0.000423586 -4.52053e-05 -0.00387698 -4.41372e-05 -3.00475e-05 0.101917 -0.190484 -0.602372 0.001 2739 394.874 3.4772e-12 
2 1 0.00266902 0.00099769 0.000995603 -0.000143677 7.73071e-05 0.00023736 -0.000666397 -0.000631502 -4.99098e-05 -0.144421 -0.277438 -0.111823 0.001 2739 395.245 3.06643e-12 
3 1 0.00565483 0.000993982 0.000992006 0.000216021 0.000378197 -0.000118084 -0.000414708 -0.0031244 0.000165085 0.161187 -0.0291886 -0.512208 0.001 2739 393.907 4.44549e-12 
4 1 0.0109977 0.00114488 0.000995538 -7.11443e-05 -0.000315276 -0.000151959 -0.000714994 0.000517703 -0.000509196 0.372253 -0.741279 -0.0868896 0.001 2739 395.287 3.01609e-12 
5 1 0.0128609 0.00184584 0.000990426 -0.000384174 0.000284795 -0.000397358 0.00187915 -0.00182976 0.00167901 -0.0103233 0.177633 0.0107424 0.001 2739 393.685 4.68312e-12 
6 1 0.0183657 0.00105886 0.000996941 4.76345e-06 2.53948e-05 0.000184454 -0.000421172 -0.00012986 -0.000485015 0.00292116 -0.236092 0.0622925 0.001 2739 395.307 3.02281e-12 
7 1 0.0203601 0.000996359 0.000998309 3.61956e-05 0.000222574 -0.000175025 -0.000226621 -0.000938032 -0.000288222 -0.100289 -0.129864 0.285203 0.001 2739 395.4 2.92756e-12 
8 1 0.0232206 0.00107364 0.000994234 -0.000175032 3.50204e-05 -0.000211306 -0.000314013 1.97681e-05 -0.000544421 -0.267199 -1.02034 0.0305707 0.001 2739 393.768 4.67479e-12 
9 1 0.00269159 0.00310585 0.000991988 -0.000610659 0.00129284 0.000266158 0.000940854 -0.00215725 -0.000398715 0.115626 0.604977 0.0060722 0.001 2739 394.974 3.34543e-12 
10 1 0.00463836 0.00271011 0.00099499 -0.000239652 -0.000986866 0.000682631 -0.000374745 0.000884375 -0.00154612 0.429955 -0.605391 -0.750044 0.001 2739 395.564 2.73097e-12 
11 1 0.00946222 0.00260451 0.000996273 0.000280038 -7.4449e-05 -5.25348e-05 -0.000360201 -5.22062e-06 -0.000435915 0.202901 0.0390405 -0.167247 0.001 2739 394.573 3.75942e-12 
12 1 0.0113787 0.00317804 0.000997939 -9.06507e-05 -8.3234e-05 0.000224333 -0.000165129 6.43326e-05 -0.00105726 -0.134435 -0.194934 0.0990033 0.001 2739 395.069 3.23827e-12 
13 1 0.0153088 0.00279544 0.000991664 -0.00010303 5.09591e-05 0.000932284 -0.00184156 0.000489219 -0.000215721 -0.0657374 -0.48689 0.0386866 0.001 2739 393.592 4.79819e-12 
14 1 0.0198389 0.00299253 0.000995293 -0.000154099 -3.00735e-05 -7.87524e-05 -0.000413646 -0.000511973 -0.000376125 0.118046 -0.531001 0.0939276 0.001 2739 394.694 3.64322e-12 
15 1 0.0217514 0.00242768 0.000995696 -1.57667e-06 -0.0002474 -0.000131242 -0.000689835 0.00011422 -0.000172185 0.487379 -0.43136 -0.0718158 0.001 2739 394.579 3.79413e-12 
16 1 0.00245192 0.005084 0.00099629 4.52233e-05 -0.000143431 -0.000458029 -0.000500104 -0.0010942 0.000134719 0.301085 0.163302 -0.0442863 0.001 2739 394.999 3.30923e-12 
17 1 0.00503434 0.00466649 0.000993084 -5.48531e-05 0.00024008 0.000718868 0.000284502 -0.000648727 -0.000368512 0.693434 0.0424791 -0.20301 0.001 2739 394.815 3.50236e-12 
18 1 0.00992741 0.00454403 0.000996593 8.20558e-05 7.98469e-06 -0.000233067 -5.41506e-05 -0.000787705 1.1258e-05 0.351527 0.441366 -0.251165 0.001 2739 395.255 3.04895e-12 
19 1 0.012753 0.00462968 0.000996464 2.09833e-05 1.35319e-05 -1.25758e-05 -0.000385392 0.000112043 -0.000102507 -0.135403 -0.139524 0.00383464 0.001 2739 394.898 3.39062e-12 
20 1 0.0161695 0.00459447 0.000997235 -2.10857e-05 0.000146067 -0.000150974 -0.000402448 -0.000425231 0.000118825 -0.0824918 -0.268583 -0.0259789 0.001 2739 394.947 3.34876e-12 
21 1 0.0192071 0.00502724 0.000998676 -5.37236e-05 2.09802e-05 -0.000125938 0.000101998 -0.000231508 9.52085e-06 0.0772855 -0.0526335 -0.0204843 0.001 2739 395.092 3.20477e-12 
22 1 0.0211371 0.00451218 0.00099655 -2.92082e-05 -4.39824e-06 2.59206e-05 0.000130923 -0.000191465 -7.05652e-05 0.0538901 0.0457558 0.0291677 0.001 2739 394.761 3.57006e-12 
23 1 0.0230707 0.00392209 0.000999077 -6.18721e-05 4.21638e-05 6.81115e-05 0.000544395 -0.000468442 0.000150205 0.0205545 -0.0428565 0.0303138 0.001 2739 396.637 1.61932e-12 
24 1 0.00398304 0.0063582 0.00099328 -0.000122179 0.000639906 0.000290637 0.000604453 -0.00186422 0.000996543 0.526709 -0.775251 -0.176579 0.001 2739 395.138 3.14949e-12 
25 1 0.0067524 0.00568907 0.000997419 -0.000107814 8.91383e-07 0.00015648 8.99102e-05 0.000557492 -2.09144e-05 -0.160881 -0.139018 0.00163781 0.001 2739 395.715 2.56835e-12 
26 1 0.0153039 0.00639302 0.000995057 -0.000246889 -3.77621e-05 -0.000148175 0.000747355 -0.00081365 -0.000607245 0.214586 -0.191899 -0.0885844 0.001 2739 393.37 4.96244e-12 
27 1 0.0172657 0.00675015 0.00103108 4.90438e-05 -0.000188853 2.51202e-05 9.11862e-05 0.000194061 -0.000313795 -0.107631 -0.0412037 0.0926222 0.001 2739 393.349 5.05624e-12 
28 1 0.0223778 0.00608042 0.000996546 -5.48628e-05 -2.10502e-05 -4.21313e-05 -2.83725e-05 -9.35644e-05 -0.00017103 0.0530945 -0.210692 -0.0100779 0.001 2739 394.51 3.83445e-12 
29 1 0.0244142 0.00539499 0.000997452 0.000558208 7.13364e-05 -6.36376e-05 0.000597512 0.000185363 0.000338168 0.0710711 -0.185122 -0.0122681 0.001 2739 395.698 2.60929e-12 
30 1 0.000991325 0.00758921 0.000995836 0.000251918 0.000218229 -0.000178587 -0.00413032 -0.000233377 -0.000439836 0.0810421 -0.60653 0.138501 0.001 2739 394.342 3.97244e-12 
31 1 0.00568945 0.00737968 0.000992299 0.000674789 -2.33928e-05 -0.000219477 -0.000707412 0.000332896 -0.000958243 0.952001 -0.868089 0.0912348 0.001 2739 394.546 3.76449e-12 
32 1 0.00844178 0.00806389 0.000998568 9.95893e-05 -4.78067e-05 -2.41761e-06 -0.00027095 -0.000342901 -0.00120553 0.0892579 -0.184361 -0.0862065 0.001 2739 395.761 2.50744e-12 
33 1 0.010405 0.00771415 0.000996833 0.000298495 -0.000203868 -6.20351e-05 -0.000490231 0.000333768 -0.000333352 0.128791 -0.0600433 -0.0165001 0.001 2739 394.575 3.73138e-12 
34 1 0.012398 0.00759 0.000997276 -6.55873e-05 0.000201831 -9.48207e-05 -0.000119687 -0.000336424 -0.000209717 -0.00346638 -0.362877 -0.00833783 0.001 2739 395.061 3.20877e-12 
35 1 0.0190324 0.00767545 0.000993292 -5.96406e-05 2.5913e-05 0.000334547 -0.000303649 -0.000728077 8.10274e-05 1.08392 -0.80555 0.00109684 0.001 2739 393.328 5.01837e-12 
36 1 0.0222144 0.00807788 0.000995342 -0.00013449 5.49893e-06 4.87572e-05 -0.000320267 0.000610244 -0.000402153 -0.0431616 -0.418841 0.0701859 0.001 2739 393.959 4.38022e-12 
37 1 0.0240733 0.00736249 0.000994451 0.00102434 -8.29057e-05 0.000141491 0.000357198 0.000218401 0.000795962 0.00147133 -0.901083 0.0464829 0.001 2739 395.223 3.09935e-12 
38 1 0.00261233 0.00875726 0.000990773 -0.000181633 0.000166144 0.000106022 -0.000746594 0.000762813 -0.00017314 -0.89473 -0.643185 -0.0900315 0.001 2739 392.743 5.60583e-12 
39 1 0.00672773 0.00907901 0.000997687 -0.000117374 -1.06092e-05 -0.000734657 0.00067649 0.000476891 0.000714331 0.262004 -0.227429 0.0281259 0.001 2739 394.96 3.33084e-12 
40 1 0.00954684 0.00975163 0.000989926 -0.000310204 -0.000138549 3.79115e-05 -0.0007494 -0.000474618 -0.000270669 1.65827 -1.23743 -0.106133 0.001 2739 393.554 4.7334e-12 
41 1 0.0134745 0.00927377 0.000998231 8.76819e-05 6.25991e-06 -2.23681e-05 -4.39211e-06 -0.000173192 -0.000248265 0.0721468 0.00979707 0.0241292 0.001 2739 394.471 3.80115e-12 
42 1 0.0152646 0.00838484 0.000997454 4.32705e-05 -3.28775e-06 -3.73665e-05 -0.000695621 -8.00286e-06 0.000172573 0.267965 -0.308268 -0.0537078 0.001 2739 393.981 4.29844e-12 
43 1 0.0172608 0.00875022 0.000992985 -0.000103269 -0.000441453 0.000269738 -0.000622235 -0.0012112 -0.000266875 1.17986 -1.01086 0.0404915 0.001 2739 394.745 3.50656e-12 
44 1 0.0204744 0.00905135 0.000996503 7.19059e-05 0.000313207 -0.000298306 -0.000700453 -0.0014068 0.000222702 -0.296334 -0.109644 -0.100849 0.001 2739 394.196 4.12185e-12 
45 1 0.0240227 0.00935798 0.000993822 0.000112633 -7.37914e-05 4.30964e-05 0.000248131 -0.000530432 -0.000171823 -0.108154 -0.909726 0.0391262 0.001 2739 394.968 3.35531e-12 
46 1 0.000992964 0.0112236 0.000993547 0.000283913 2.08916e-05 0.000154858 -0.00193844 -5.81323e-05 0.00044257 0.0257243 0.73362 -0.133605 0.001 2739 392.686 5.66216e-12 
47 1 0.00436928 0.00989974 0.000994719 -3.449e-05 -0.000130494 6.53862e-05 5.35251e-05 -0.00135687 -0.00117372 0.636206 -0.391758 -0.0658672 0.001 2739 394.587 3.7175e-12 
48 1 0.00804232 0.0110598 0.000997015 -0.000131271 0.000165747 0.000379113 -0.000478733 0.000144268 3.9551e-05 -0.227381 -0.361363 -0.0796711 0.001 2739 395.927 2.32227e-12 
49 1 0.012255 0.0111913 0.000990363 -1.60202e-05 0.000111877 0.000334782 -0.000423417 0.000457583 -0.00130727 -0.857595 -0.77204 -0.0515058 0.001 2739 393.971 4.32083e-12 
50 1 0.0155811 0.0103523 0.00099665 -0.00022417 4.8881e-05 0.000143154 0.00063768 -0.000691711 1.4255e-05 0.0832449 -0.126648 0.0482683 0.001 2739 395.148 3.10799e-12 
51 1 0.0172801 0.0114009 0.000993745 0.000158549 0.000464708 -5.19255e-05 -0.00060552 -0.000404542 -0.000290716 -0.0278181 -1.01292 0.0240248 0.001 2739 394.604 3.6704e-12 
52 1 0.0187609 0.0100674 0.000999574 -0.000337843 -0.00038707 -0.000317601 0.000527026 0.000546761 -0.000276876 0.0856661 0.0799674 0.0671739 0.001 2739 394.909 3.36701e-12 
53 1 0.0221717 0.0100971 0.000996984 0.000104492 -7.41339e-05 0.00043004 -0.000720754 0.000184471 -0.000633508 -0.198693 -0.416969 -0.0565302 0.001 2739 396.412 1.83295e-12 
54 1 0.00528604 0.0127733 0.000998573 -0.000306917 0.0001676 -0.000359548 0.000640492 1.84621e-05 0.00206312 0.24038 0.0760525 0.0439797 0.001 2739 394.698 3.60573e-12 
55 1 0.00866072 0.0129576 0.000996868 0.000297034 -8.06544e-05 -0.000141089 9.36348e-05 -6.19303e-05 -0.000451568 0.218922 -0.0498335 -0.0426737 0.001 2739 395.123 3.15548e-12 
56 1 0.0109927 0.0127336 0.000993124 0.000165964 -0.000487174 0.000141737 -0.00056118 0.000688196 -0.000452826 -0.264489 -0.327554 -0.0781225 0.001 2739 394.174 4.11417e-12 
57 1 0.0154521 0.0123422 0.000999957 0.000116044 0.0002431 -0.000310987 0.00017326 -0.000112154 -0.000707701 0.322945 -0.0818261 0.0981634 0.001 2739 395.717 2.53707e-12 
58 1 0.0196625 0.0118482 0.000997329 -0.000100942 -5.28945e-05 -0.000275469 -0.000213454 0.00080464 -6.54311e-05 -0.0590116 -0.340764 -0.0323538 0.001 2739 395.727 2.52272e-12 
59 1 0.0216481 0.0120209 0.000998904 -0.000191233 7.41558e-05 9.64247e-05 0.000720073 -0.000465878 -0.000608652 -0.00585944 -0.0874307 -0.0198463 0.001 2739 396.582 1.65097e-12 
60 1 0.0236374 0.0121645 0.000995974 0.000177697 9.64273e-05 0.000147594 0.000240098 0.000411705 0.000167097 -0.368955 -0.727892 -0.00507561 0.001 2739 394.92 3.37679e-12 
61 1 0.000999255 0.000999538 0.00268278 -2.44977e-05 -4.76105e-05 -1.73523e-05 -9.15504e-05 -0.000179533 -0.000181712 -0.0137212 0.0119859 -0.0106918 0.001 2739 389.831 8.77879e-12 
62 1 0.00416438 0.000995733 0.00231487 0.000390144 -0.000491538 -0.00030046 -0.000246236 -0.000868084 0.000564177 -0.542611 -0.188004 0.127697 0.001 2739 389.71 8.80973e-12 
63 1 0.00939664 0.000990846 0.00216904 0.000472594 0.000453396 0.000228843 -0.000462015 -0.00422288 -0.000378723 0.057132 0.000958516 0.585612 0.001 2739 391.119 7.35048e-12 
64 1 0.014598 0.000990476 0.00144385 -0.000116605 0.000231961 0.000523378 0.000793195 -0.00335342 -0.00113239 -0.451659 0.0473359 0.515099 0.001 2739 391.157 7.37349e-12 
65 1 0.016551 0.000997109 0.00182406 0.00051695 -0.000143184 -0.000805488 -0.000191153 -0.000502909 0.000294219 -0.158807 0.20346 0.0382331 0.001 2739 389.48 9.13611e-12 
66 1 0.0217933 0.000995073 0.00238647 7.40452e-06 -0.000304639 0.000140175 -0.000199559 -0.00110359 -0.000240002 -0.0498586 0.0280975 0.520652 0.001 2739 390.818 7.74097e-12 
67 1 0.00651462 0.00334272 0.00115581 0.00045928 0.000113193 -0.00130254 -0.000645293 -0.000267146 0.00208561 -0.0896651 -0.6099 0.45372 0.001 2739 393.335 5.07962e-12 
68 1 0.00786269 0.00225822 0.00213741 -0.000817311 -0.000320102 0.000790545 0.000831963 0.000358337 -0.000279362 0.169795 0.107802 -0.074299 0.001 2739 390.089 8.4078e-12 
69 1 0.0108719 0.0022343 0.00268641 0.000103658 -2.43395e-05 -5.2701e-05 0.000198588 0.000132071 -0.000221441 0.00621472 -0.0186281 0.000144671 0.001 2739 390.231 8.26912e-12 
70 1 0.0137294 0.00322689 0.0021312 0.000920675 -0.000330338 -1.11665e-05 -0.00105425 0.000539451 -0.000894946 -0.127336 -0.333827 0.312582 0.001 2739 389.731 8.74683e-12 
71 1 0.0172205 0.00287905 0.00154666 0.000439934 -4.35785e-05 -0.000812571 0.00020774 0.00017209 1.57382e-05 0.0236204 -0.0842236 0.0934156 0.001 2739 388.994 9.64041e-12 
72 1 0.018805 0.00334364 0.00266246 -0.000174565 -0.000257393 0.000321848 -8.12104e-06 0.000670633 -0.00090239 -0.155302 0.0205159 -0.06088 0.001 2739 387.724 1.08704e-11 
73 1 0.0245531 0.00313039 0.00209755 0.000635435 -0.000321975 -0.000695144 0.00093955 -0.000171685 -0.000311201 0.0689265 -0.10757 0.0810303 0.001 2739 388.213 1.06786e-11 
74 1 0.000998078 0.00389023 0.00184141 -1.57237e-05 1.78007e-05 -4.7668e-05 -0.000140533 -0.000147244 -0.000171213 0.00433166 0.133176 -0.0443717 0.001 2739 392.902 5.57287e-12 
75 1 0.00808534 0.00440843 0.00175026 -4.27857e-05 0.00035053 -3.96813e-06 0.000852496 -0.000850305 -0.000716118 0.241966 -0.0515647 -0.438243 0.001 2739 392.87 5.54988e-12 
76 1 0.0143627 0.00511482 0.00219909 -0.000118364 0.000237902 0.000240663 0.00035394 -0.000656674 -0.0010476 0.034111 -0.0392943 -0.0918058 0.001 2739 389.862 8.61605e-12 
77 1 0.0176608 0.00498721 0.00226137 0.00027807 -0.000188254 6.45843e-05 -5.20138e-05 0.000561668 -0.00020272 -0.0452845 0.105683 -0.0334279 0.001 2739 391.444 6.92593e-12 
78 1 0.00098694 0.00590122 0.0020675 0.000134186 -8.99181e-05 0.000228487 -0.00556534 0.00188192 0.000137365 0.0903124 -0.203978 -1.1396 0.001 2739 392.567 5.84317e-12 
79 1 0.00913984 0.00628227 0.00156562 -0.000623215 0.000192089 5.32882e-05 0.00102921 4.84919e-05 0.000320082 0.066183 -0.140698 0.132394 0.001 2739 392.989 5.38951e-12 
80 1 0.0112964 0.00595791 0.0013296 0.000143641 -0.000107739 0.000179491 0.000350136 -0.000124729 -0.000398347 -0.0497408 0.0253379 0.0746142 0.001 2739 394.947 3.3666e-12 
81 1 0.0188458 0.00662248 0.00267801 4.29499e-05 9.20145e-05 6.42168e-05 -0.000434664 -0.000191257 -0.000307411 -0.193043 0.0616227 0.0675118 0.001 2739 388.853 9.62606e-12 
82 1 0.0204977 0.0064437 0.00156685 -3.58517e-05 -1.17622e-06 4.39519e-05 2.28221e-05 1.49275e-05 -0.000106969 0.0132502 -0.00580426 0.0230428 0.001 2739 392.947 5.45596e-12 
83 1 0.0249994 0.00651527 0.00254195 0.000787422 0.000570437 0.000819619 0.000520678 0.000174909 0.000100628 -0.237388 -0.0987905 0.0493273 0.001 2739 390.295 8.29636e-12 
84 1 0.0025505 0.00712777 0.00213958 -0.000308585 -0.00030953 0.000571011 0.00199655 0.000919846 -0.00258167 0.458391 0.353054 0.479407 0.001 2739 390.028 8.38441e-12 
85 1 0.00421378 0.00821004 0.0020436 4.74717e-05 -0.000228906 -0.000814121 -0.00158505 0.000121367 0.00301751 0.149331 0.113666 -0.0919512 0.001 2739 391.285 7.12071e-12 
86 1 0.00707566 0.00763335 0.00239655 -0.00027094 -4.75476e-05 -6.70916e-05 0.000183161 -0.00187424 0.000884976 -0.0450823 -0.18724 0.0802511 0.001 2739 388.197 1.03259e-11 
87 1 0.0140016 0.00736075 0.00216106 3.16885e-05 -0.000293853 4.2015e-05 -7.32685e-05 0.000120904 1.36931e-05 -0.0284741 0.00929507 -0.000599044 0.001 2739 390.034 8.30778e-12 
88 1 0.0210606 0.00805742 0.00262352 0.000225103 -0.000223894 0.000211417 -0.000101429 0.000214995 -0.000110847 0.0204684 0.0256051 0.0248696 0.001 2739 389.056 9.37182e-12 
89 1 0.000993397 0.00945701 0.0019254 0.000282825 4.77441e-05 -0.0002814 -0.00203166 -0.000334908 -0.00120623 -0.142613 0.361682 0.840516 0.001 2739 390.008 8.40766e-12 
90 1 0.0114914 0.00936852 0.00122131 -1.08703e-05 -0.000294188 -0.00048456 -0.000163605 0.000240853 0.00158293 0.327788 -0.261391 -0.0942403 0.001 2739 392.584 5.75586e-12 
91 1 0.0189599 0.00885359 0.00260139 -0.000208702 0.000271847 -0.000164731 -0.000214011 6.26328e-05 -1.84615e-05 -0.0257721 0.0202248 -0.0143185 0.001 2739 387.278 1.11246e-11 
92 1 0.00268484 0.0105711 0.00182092 -0.000546303 -9.6724e-05 -2.44482e-05 0.00078671 -7.8962e-05 -4.13876e-05 -0.0394538 0.0483162 -0.123104 0.001 2739 390.563 7.84049e-12 
93 1 0.00605696 0.0109466 0.00115867 0.00046367 1.8555e-05 0.000371232 -0.000486629 -4.70715e-05 -0.00117002 0.0797123 -0.0232142 0.194034 0.001 2739 394.631 3.69171e-12 
94 1 0.00729551 0.00997904 0.00268279 -0.000395055 0.000440232 -0.00119614 1.2899e-05 -0.00130924 0.00145469 0.00561608 -0.0450276 0.0736894 0.001 2739 388.539 9.91428e-12 
95 1 0.0101334 0.0113117 0.00209177 -0.000348446 0.0001248 -0.000173504 0.0011603 -8.53793e-05 0.000108698 -0.111476 0.0972837 -0.135996 0.001 2739 388.959 9.40176e-12 
96 1 0.0131974 0.0104577 0.00258283 -0.000193767 -0.000389668 -0.0001789 -0.000226667 0.00152089 0.000553381 0.220935 0.0963703 -0.207818 0.001 2739 388.869 9.47882e-12 
97 1 0.0161276 0.0113786 0.00261922 -0.000260502 -0.00078724 0.000557854 -0.000404681 8.90915e-05 -0.00105621 0.0566855 0.0129905 -0.0244093 0.001 2739 390.214 8.13461e-12 
98 1 0.0210157 0.0100563 0.00263517 5.1265e-05 -0.000144372 4.40328e-05 4.45649e-05 4.6267e-05 -0.000364947 0.0489632 -0.0889865 0.0632874 0.001 2739 389.488 9.01972e-12 
99 1 0.0238052 0.0107572 0.00240338 2.75085e-05 -0.000359437 -0.000161044 0.000308469 -0.000228531 -0.000348822 0.0749479 -0.00488847 0.116351 0.001 2739 390.213 8.27324e-12 
100 1 0.00251454 0.0124878 0.00126305 3.43261e-05 0.000230391 -0.000136757 0.000135509 -9.88689e-05 -0.000304315 0.019246 -0.138291 0.0838725 0.001 2739 392.349 6.07202e-12 
101 1 0.00409137 0.01189 0.00233157 -0.000106734 -0.00039348 0.000102616 3.48929e-05 8.03254e-05 -0.000683836 -0.0634918 0.172943 0.0394892 0.001 2739 389.272 9.17424e-12 
102 1 0.00699454 0.0124982 0.00199896 -2.2905e-05 3.53432e-05 0.000128848 0.000103833 -0.000139688 1.18298e-05 0.0180723 -0.0219576 0.0304968 0.001 2739 392.968 5.40328e-12 
103 1 0.0135806 0.0125146 0.00166517 0.000191478 -0.000210591 -0.000951322 -0.000595109 -0.000249657 0.00135958 0.0782235 -0.0201575 0.115233 0.001 2739 391.478 6.90071e-12 
104 1 0.0182912 0.0125818 0.00224418 4.06072e-05 0.000221059 0.000122899 -0.000659143 0.000282573 -0.000462644 0.00755877 -0.0243132 0.0170767 0.001 2739 390.837 7.53924e-12 
105 1 0.00497808 0.000997038 0.00413314 -0.000264278 0.000213216 -0.000190164 0.000251774 -0.000946061 -1.22268e-05 -0.266596 0.080762 0.328675 0.001 2739 384.892 1.36423e-11 
106 1 0.00646853 0.000993898 0.00281007 -0.000349616 0.000157849 -0.000887292 -0.000128265 -0.00165088 -0.000157313 -0.156784 0.0769648 0.329217 0.001 2739 387.62 1.09292e-11 
107 1 0.00821054 0.00100983 0.00377075 -0.000931459 5.41553e-05 0.000432616 0.000532416 3.66993e-05 -0.00115823 0.0704834 -0.227779 0.0472671 0.001 2739 385.414 1.31099e-11 
108 1 0.0101407 0.000997996 0.0042407 0.000228047 0.000214351 -0.000940011 -0.000517297 -0.000924694 0.00113717 -0.182848 0.0938536 0.682801 0.001 2739 381.158 1.72056e-11 
109 1 0.0131082 0.000995337 0.00277366 -0.000121801 0.00017728 -0.000258221 -0.000431657 -0.00150434 0.000217557 0.0167151 -0.287505 -0.0297483 0.001 2739 387.815 1.07437e-11 
110 1 0.0149721 0.000996133 0.00347734 0.000151787 -0.000329181 0.00027174 -2.83478e-05 -0.000649167 -0.000622467 -0.288223 -0.0421428 0.613326 0.001 2739 384.245 1.43732e-11 
111 1 0.0179145 0.000996737 0.00327641 -0.00015022 -0.000203525 0.000256193 0.000920019 -0.000670839 -0.00115315 -0.341529 -0.016383 0.523386 0.001 2739 385.831 1.28654e-11 
112 1 0.0198854 0.000998716 0.00297802 0.000101339 -0.00010444 -0.000624645 5.70491e-06 1.56657e-05 -6.47422e-05 -0.0936437 0.0910206 -0.0640409 0.001 2739 387.108 1.16107e-11 
113 1 0.0239476 0.000997468 0.00284895 3.16512e-05 7.56133e-05 -1.24617e-05 -0.000268731 -0.000311294 2.16068e-05 0.239209 0.129974 0.0624113 0.001 2739 386.91 1.18414e-11 
114 1 0.000987744 0.00282287 0.00364073 0.000140776 -0.000380369 -0.000196111 -0.00539342 0.000284951 5.89738e-05 0.0317971 1.32696 -1.11057 0.001 2739 383.944 1.46944e-11 
115 1 0.00268432 0.00224262 0.00278538 0.00103752 -2.56401e-05 -0.000197489 -0.000782256 -0.000403392 -0.00115813 -0.163225 -0.0717304 -0.108351 0.001 2739 387.871 1.07152e-11 
116 1 0.00457384 0.00272713 0.00322051 0.000146582 5.01645e-05 -8.50714e-05 0.000361931 -0.000143242 -0.000476163 0.0440575 0.0142662 0.0350623 0.001 2739 386.644 1.19427e-11 
117 1 0.00685177 0.00260279 0.00392074 0.000596835 -9.46924e-05 0.000203819 -0.000666631 0.00030825 -0.000425468 -0.146841 0.105664 -0.0473424 0.001 2739 383.839 1.47143e-11 
118 1 0.0087445 0.00319206 0.00366384 0.000412008 -0.000121868 -2.39178e-06 2.5583e-05 -0.000287988 4.98933e-05 -0.0562645 -0.00106852 0.00421295 0.001 2739 383.716 1.47857e-11 
119 1 0.0125888 0.00275381 0.00369548 -0.000305167 0.000240911 0.000240297 -0.000210207 -0.000248588 -0.000338531 -0.0564448 0.101839 -0.0227331 0.001 2739 383.419 1.50713e-11 
120 1 0.0164357 0.00233504 0.00329855 -0.000239878 0.000391574 3.29093e-05 0.00119444 -0.00017203 8.24544e-05 0.00339464 -0.251273 0.137216 0.001 2739 385.639 1.30314e-11 
121 1 0.0207135 0.00281785 0.00292372 6.82219e-05 -4.45976e-05 -0.000189788 7.31136e-05 -0.000104043 -0.000112596 -0.00776404 0.0178824 0.00273194 0.001 2739 386.6 1.20994e-11 
122 1 0.0227015 0.00273819 0.00272165 5.96896e-06 0.000387676 0.000390826 -0.000475922 -0.000352632 -0.000483702 0.00359195 0.0448604 -0.102775 0.001 2739 388.865 9.80565e-12 
123 1 0.0249081 0.00295557 0.00406131 0.00148588 0.000168628 -0.000297841 0.00136263 0.00092634 -2.45236e-05 0.0421088 -0.0288398 0.00758854 0.001 2739 385.08 1.3733e-11 
124 1 0.00237573 0.00479267 0.00297186 9.63823e-05 1.24885e-05 -8.22172e-05 -0.00054525 -0.000603275 2.85424e-05 -0.152118 0.0656645 0.306646 0.001 2739 390.934 7.51815e-12 
125 1 0.0051241 0.00463225 0.00298567 0.000140776 -0.00022802 -6.04817e-05 -0.000122049 -0.000134053 -0.000325447 -0.0141177 -0.0507877 -0.0222962 0.001 2739 387.405 1.11563e-11 
126 1 0.00705196 0.00454024 0.00350255 -0.000182401 1.21234e-05 -0.000107299 0.00111807 -0.000318362 0.000356116 0.00132753 -0.00700877 -0.00560347 0.001 2739 385.881 1.27581e-11 
127 1 0.00960181 0.00488313 0.00294862 -9.30391e-05 -0.000125822 8.90747e-05 -0.000281896 0.000320721 0.000546159 -0.245469 -0.141374 0.422137 0.001 2739 387.247 1.12858e-11 
128 1 0.0108874 0.00375812 0.00397832 0.000158122 -5.08043e-05 -0.000191436 -3.31876e-05 0.000205788 0.000430143 0.0100489 0.0431707 0.049453 0.001 2739 384.518 1.39877e-11 
129 1 0.0125966 0.00462645 0.00298582 -0.000525963 -0.000189315 -0.000300348 0.00145231 0.000755453 0.00070705 0.134294 0.0933529 0.018414 0.001 2739 388.09 1.03458e-11 
130 1 0.0151733 0.00384702 0.0036038 -0.000133603 1.60924e-06 -0.000253922 -0.000118873 -0.000264555 6.63647e-05 -0.016119 -0.109677 0.338934 0.001 2739 382.497 1.615e-11 
131 1 0.0197549 0.00496638 0.00332317 -0.000113584 -6.73576e-05 7.75609e-05 0.000474945 0.00020056 -6.43529e-05 0.103926 0.00443286 -0.0688539 0.001 2739 385.476 1.30714e-11 
132 1 0.0216835 0.00466144 0.00291022 -0.000193716 -5.09634e-05 -7.39622e-05 0.000115585 -0.000164516 0.000445494 -0.0185224 0.0858812 -0.00745585 0.001 2739 387.88 1.07364e-11 
133 1 0.0234967 0.00431142 0.00366846 -4.24667e-05 6.91263e-05 0.000147547 0.000411307 7.0932e-05 -0.000232027 -0.000548231 0.0659425 -0.000921088 0.001 2739 386.613 1.21383e-11 
134 1 0.000997587 0.005742 0.00406961 4.8148e-05 -6.29053e-05 3.82955e-06 -0.00018782 -0.000293476 -0.000166409 0.00123382 0.00627545 -0.100005 0.001 2739 383.578 1.51638e-11 
135 1 0.00417849 0.00639084 0.00302998 -5.85277e-05 -2.53117e-06 -0.000200405 0.000110755 3.93942e-05 0.000346516 -0.0214283 -0.0026123 -0.0647487 0.001 2739 386.737 1.18242e-11 
136 1 0.00610965 0.00630016 0.00352491 7.08785e-05 3.16992e-05 0.000363897 -1.15487e-05 -6.76841e-05 -0.000298839 0.0095231 0.00634103 0.059734 0.001 2739 385.942 1.26748e-11 
137 1 0.00813768 0.00619771 0.0032871 0.000409108 -3.41191e-05 3.90688e-05 -0.00128906 -0.000204236 -0.000657347 -0.11422 -0.00833479 -0.0812741 0.001 2739 386.364 1.21302e-11 
138 1 0.0111845 0.00585161 0.00367159 0.000177667 0.000418619 0.000460525 -0.000365871 -0.000366848 -0.00153418 -0.0889377 0.0101939 -0.147535 0.001 2739 385.183 1.32372e-11 
139 1 0.0142163 0.00550074 0.00417078 4.30362e-05 0.000204034 0.000239293 -0.00017233 -0.000158227 -0.000767408 -0.00414782 0.087304 -0.255078 0.001 2739 381.619 1.68495e-11 
140 1 0.0160324 0.00601512 0.00281633 1.52973e-05 -0.000183118 9.47405e-05 -0.000365285 0.000271116 1.03942e-05 0.000303973 -0.0469105 0.0311364 0.001 2739 388.239 1.0204e-11 
141 1 0.0175989 0.00587536 0.0040461 -0.000352948 0.000287653 -1.58045e-05 0.00134704 -0.000225121 -0.000147084 0.168799 -0.10149 0.0276418 0.001 2739 384.31 1.40269e-11 
142 1 0.0205134 0.00669247 0.003973 -1.18218e-05 -0.000256274 -0.000161267 0.00010084 -1.0369e-05 0.000288084 -0.100519 0.0328284 -0.111087 0.001 2739 384.089 1.4348e-11 
143 1 0.0230751 0.00609159 0.00286627 0.000182608 -2.42462e-05 1.18443e-05 -0.000607757 0.00042483 7.85764e-05 -0.0839645 -0.0228533 -0.0293671 0.001 2739 388.448 1.01477e-11 
144 1 0.000996216 0.00773973 0.00323381 8.63718e-05 0.000137737 -3.29388e-05 -0.000524731 2.48695e-05 -0.000307468 -0.0757348 -0.0889455 -0.160331 0.001 2739 384.905 1.35087e-11 
145 1 0.00259719 0.00693738 0.00411858 0.000187862 -4.25657e-05 5.5306e-05 -0.00159165 -0.00224806 -0.00130735 -0.04734 -0.156553 0.147993 0.001 2739 383.578 1.4767e-11 
146 1 0.0101127 0.00736738 0.00294357 0.000143234 9.32016e-05 -0.000390253 0.000426454 0.000237802 0.000212028 0.0179145 -0.00347405 -0.0297765 0.001 2739 388.869 9.61533e-12 
147 1 0.0128725 0.00691123 0.0037486 -9.66586e-07 -0.000158055 -0.000909698 -0.000212811 0.000391403 0.000648881 -0.0957656 0.195703 0.184471 0.001 2739 383.882 1.44363e-11 
148 1 0.0151293 0.00750053 0.00380217 -0.000126479 -4.33736e-05 0.000134615 0.000374988 -0.000256261 -0.000248998 -0.0374993 0.0723374 -0.0363955 0.001 2739 385.431 1.2855e-11 
149 1 0.01715 0.00766871 0.00281874 -1.14341e-06 -3.38163e-05 2.25637e-05 0.000548807 -6.58896e-05 -8.17857e-05 0.0310845 0.014353 -0.0277702 0.001 2739 388.216 1.02956e-11 
150 1 0.0230975 0.0080856 0.00278591 -3.87634e-05 0.000239449 -6.92426e-05 9.18095e-05 -0.00012222 -0.000121723 -0.0199153 0.00950647 0.0358276 0.001 2739 388.765 9.79491e-12 
151 1 0.000991672 0.00963335 0.0039128 7.21348e-05 0.000189819 0.000239531 -0.00290661 -0.000585368 0.000296465 0.130031 0.628609 0.288172 0.001 2739 385.835 1.24944e-11 
152 1 0.00260827 0.00894261 0.00297627 0.000253027 -0.000159547 -0.000179892 -0.000174098 0.00189179 -0.000367149 -0.0564004 -0.212021 -0.0269982 0.001 2739 388.791 9.62767e-12 
153 1 0.0057114 0.0088782 0.00316169 0.000617438 -0.000102898 0.00107019 0.00116284 -0.000605025 -0.00176783 0.197421 -0.0793714 -0.117866 0.001 2739 387.13 1.13228e-11 
154 1 0.00856981 0.00857585 0.0033109 0.000246198 -0.000206071 0.000713802 -0.000686875 0.00135286 -0.00180207 0.081252 -0.0708173 0.0506084 0.001 2739 386.912 1.15639e-11 
155 1 0.0102818 0.0094595 0.00281298 0.00110002 0.000667267 -0.000339689 -0.00114392 -0.0014507 0.00115609 -0.371137 0.0839883 0.197723 0.001 2739 387.038 1.13338e-11 
156 1 0.0120462 0.00853589 0.00294493 2.44442e-05 0.00033189 0.000333402 0.000140403 -0.000350523 -0.000653628 -0.260822 0.161295 0.0976465 0.001 2739 386.357 1.20324e-11 
157 1 0.014686 0.00914144 0.0027519 0.000136394 -3.21017e-06 4.08858e-05 -0.000404618 -0.000718679 -7.22468e-05 -0.00983535 -0.0640372 0.036212 0.001 2739 388.456 9.88776e-12 
158 1 0.0171369 0.00966315 0.00275869 0.000369928 0.00089777 -0.000452995 -0.000363579 -0.000641039 9.3946e-05 -0.0072832 -0.00742304 0.00399957 0.001 2739 387.56 1.07852e-11 
159 1 0.0200663 0.00864688 0.00425014 -0.000120458 0.000508706 -0.000203542 7.26115e-05 -0.000596045 5.30728e-05 -0.0144782 0.030778 -0.047194 0.001 2739 383.539 1.47552e-11 
160 1 0.0226652 0.00979193 0.00373036 0.00010211 7.99058e-05 0.000107995 0.000137418 -6.42455e-05 -0.000197553 -0.0582827 0.0803427 0.0155362 0.001 2739 387.899 1.06578e-11 
161 1 0.00241896 0.0110181 0.00374568 0.000841811 3.47796e-05 -0.000352431 -0.000662444 -5.73522e-05 -0.000464188 0.0653485 -0.187499 0.125789 0.001 2739 385.274 1.30778e-11 
162 1 0.00416772 0.0101276 0.00337547 -2.78204e-05 1.41761e-05 -3.06267e-05 0.00024772 0.00012454 -5.70984e-06 -0.0236579 -0.037309 0.00521105 0.001 2739 386.775 1.17435e-11 
163 1 0.00585035 0.0111884 0.00357058 1.69512e-05 -1.92808e-05 1.20511e-05 0.000116746 2.28717e-05 -0.000142386 0.00752755 -0.00654299 -0.00231355 0.001 2739 385.908 1.26334e-11 
164 1 0.00877708 0.0110001 0.00352177 0.00027969 -0.000469529 0.00107289 -0.000176335 0.00112352 -0.00196469 -0.0716024 0.131576 0.0657567 0.001 2739 385.233 1.31073e-11 
165 1 0.0116932 0.0103711 0.00389003 0.000102189 -9.21508e-05 0.000236923 1.2063e-05 3.68734e-05 -0.000453622 -0.0133574 0.0386265 0.0065221 0.001 2739 385.116 1.31646e-11 
166 1 0.0143788 0.0109002 0.0041235 3.26831e-05 0.000253923 0.000168632 0.000600648 -0.00117995 -0.000396472 -0.286863 -0.047152 0.23328 0.001 2739 383.896 1.43708e-11 
167 1 0.0175995 0.0111942 0.00395419 0.000161992 -3.06678e-05 0.000290171 -0.000216935 0.000124637 -0.000378913 -0.00387216 -0.0735889 -0.000287268 0.001 2739 384.782 1.34615e-11 
168 1 0.0191823 0.0108299 0.00279601 -0.000110527 -5.92468e-05 -2.6614e-05 3.95142e-05 -0.000122374 0.000287282 0.0288659 0.0325729 -0.112143 0.001 2739 388.833 9.61658e-12 
169 1 0.000997359 0.0120558 0.00280586 -0.000154933 0.000142392 0.000288218 0.000284513 0.000247979 -0.00017537 -0.0762019 -0.0989347 0.0422699 0.001 2739 386.511 1.19027e-11 
170 1 0.00271509 0.012949 0.00332236 1.63137e-05 1.98007e-05 -1.13323e-05 0.000165258 -1.4288e-05 -5.30875e-05 -0.0177798 -0.0132765 0.00186512 0.001 2739 387.048 1.14859e-11 
171 1 0.00895011 0.0129487 0.00314273 -0.000951267 -0.000895818 -0.000658402 -1.76026e-05 0.00134228 3.18295e-05 0.487028 -0.00108807 -0.441738 0.001 2739 386.423 1.19972e-11 